ITEM: TIMESTEP
0
ITEM: NUMBER OF ATOMS
108
ITEM: BOX BOUNDS pp pp pp
0.0000000000000000e+00 1.0902600000000000e+01
0.0000000000000000e+00 1.0902600000000000e+01
0.0000000000000000e+00 1.0902600000000000e+01
ITEM: ATOMS id type x y z
8 1 3.68441 1.72858 1.82163
15 1 1.8558 3.58685 1.86584
38 1 1.70582 1.70631 3.46705
53 1 3.54427 3.61357 3.71636
44 1 3.51646 1.76308 5.37268
19 1 5.3678 3.68516 1.92584
37 1 0.0535485 0.0274984 3.66595
3 1 1.72308 0.0488844 1.79167
16 1 0.00749712 5.40132 1.7316
56 1 3.56895 5.37566 5.42116
14 1 1.8428 5.35738 0.0638361
17 1 3.64193 3.5997 0.00323671
51 1 1.78781 3.57905 5.41621
5 1 3.59393 0.0027779 0.00711921
4 1 10.7646 1.87604 1.85684
49 1 10.8134 3.51621 3.64902
42 1 5.55746 1.79784 3.6391
12 1 7.29603 1.89169 1.77796
23 1 9.08725 3.65171 1.73319
46 1 8.95819 1.73086 3.66142
57 1 7.17284 3.57593 3.69999
21 1 7.11485 3.77394 0.0467793
59 1 8.89911 3.63114 5.39933
7 1 5.49702 0.0235293 1.88824
11 1 9.16715 0.0757685 1.82505
6 1 5.56272 1.8417 0.0979534
47 1 9.17512 0.159031 5.44731
41 1 3.62624 10.8898 3.55648
20 1 3.65163 5.50066 1.95871
18 1 5.39198 5.45279 0.0529969
50 1 1.67283 5.51307 3.55447
27 1 1.70925 7.27817 1.85272
32 1 3.58519 9.15202 1.77545
62 1 1.84665 9.04145 3.7106
65 1 3.61532 7.2799 3.39934
28 1 0.129847 9.08684 1.77678
29 1 3.53509 7.23932 0.0867204
43 1 5.39154 10.8521 5.42718
64 1 0.0495074 9.18483 5.43863
68 1 3.71227 9.07755 5.39043
67 1 5.31912 7.31348 5.36801
54 1 5.48131 5.49769 3.76812
58 1 9.36454 5.45395 3.66573
61 1 10.8839 7.33994 3.60438
60 1 7.3337 5.57987 5.37617
66 1 5.4969 9.08256 3.49986
31 1 5.46313 7.2294 1.80766
24 1 7.3283 5.50976 1.91639
45 1 7.28432 10.8871 3.59182
35 1 9.10765 7.30159 1.65055
36 1 7.27714 9.14904 1.78424
69 1 7.36768 7.30037 3.65599
70 1 9.0536 9.16139 3.53477
34 1 9.24677 9.12265 0.0606884
9 1 7.33803 10.8468 0.036748
71 1 9.10022 7.31002 5.43272
2 1 1.85397 1.83347 10.8753
74 1 1.88361 1.71127 7.22358
80 1 3.77141 1.81915 9.05625
87 1 1.75937 3.54991 9.08354
89 1 3.63935 3.58681 7.46986
77 1 3.73965 0.106909 7.38648
92 1 3.59445 5.40027 9.06369
88 1 0.0459834 5.35512 9.18551
86 1 1.68144 5.37038 7.27213
73 1 0.0446011 0.0367298 7.26597
55 1 5.59838 3.72424 5.54834
13 1 10.7701 3.55901 10.8776
78 1 5.51693 1.9001 7.3743
1 1 10.8091 0.0653272 10.8907
10 1 9.01792 1.75379 10.8978
48 1 7.21528 1.76015 5.64708
76 1 10.7806 1.8631 9.0517
40 1 10.8567 1.85714 5.52795
85 1 10.8353 3.62445 7.16139
91 1 5.57384 3.8052 9.11338
82 1 9.10228 1.89622 7.25366
84 1 7.25675 1.78909 9.10164
93 1 7.33231 3.68117 7.21159
95 1 9.03646 3.73254 9.07391
79 1 5.56919 0.126231 9.25624
83 1 9.00579 0.0521895 9.02788
94 1 9.06525 5.43194 7.24685
39 1 1.89742 10.7774 5.5194
26 1 1.77682 9.03736 10.8014
52 1 0.0227434 5.55138 5.49463
63 1 1.82732 7.30608 5.47001
75 1 1.95255 10.8085 9.11333
98 1 1.87513 9.05613 7.39307
99 1 1.7735 7.2264 8.9891
101 1 3.61471 7.10404 7.21001
104 1 3.80833 8.97865 9.15307
25 1 0.102694 7.28723 10.8307
102 1 5.32306 9.1045 7.27309
90 1 5.36813 5.49682 7.34157
97 1 0.00482609 7.2428 7.36627
103 1 5.42841 7.18122 9.20575
22 1 9.03547 5.45154 10.7673
81 1 7.16359 10.7343 7.221
30 1 5.49289 8.96889 10.8607
33 1 7.36747 7.1985 10.8515
72 1 7.25933 9.09312 5.46513
96 1 7.2863 5.46679 8.95732
100 1 10.7795 9.13364 9.07145
105 1 7.2251 7.25454 7.16462
106 1 9.05336 9.23044 7.14778
107 1 9.16698 7.21133 9.07122
108 1 7.4553 8.98625 9.12988
ITEM: TIMESTEP
100
ITEM: NUMBER OF ATOMS
108
ITEM: BOX BOUNDS pp pp pp
0.0000000000000000e+00 1.0902600000000000e+01
0.0000000000000000e+00 1.0902600000000000e+01
0.0000000000000000e+00 1.0902600000000000e+01
ITEM: ATOMS id type x y z
8 1 3.69761 1.89478 1.81205
15 1 1.81581 3.66434 1.90426
38 1 1.88529 1.75843 3.51393
53 1 3.61045 3.64808 3.58157
44 1 3.73558 1.88159 5.26558
19 1 5.49405 3.63469 1.91573
37 1 10.8608 0.121824 3.71574
3 1 1.81365 10.8432 1.69495
16 1 10.8811 5.35002 1.70648
56 1 3.45842 5.48252 5.38221
14 1 1.752 5.2506 0.0810424
17 1 3.59993 3.53875 10.8574
51 1 1.71131 3.70026 5.2856
5 1 3.76614 0.0485658 10.859
4 1 10.7801 1.77803 1.73503
49 1 10.8105 3.44533 3.61515
42 1 5.50101 1.76068 3.6703
12 1 7.20223 1.81667 1.93792
23 1 9.01528 3.63483 1.69811
46 1 8.98119 1.93291 3.63945
57 1 7.22953 3.62031 3.6756
21 1 7.28413 3.6194 0.0775897
59 1 8.9429 3.6309 5.33174
7 1 5.37843 10.8638 1.75103
11 1 9.13031 0.00820885 1.84731
6 1 5.53581 1.83071 0.0862444
47 1 9.13546 0.101968 5.39605
41 1 3.54423 10.8215 3.4839
20 1 3.52032 5.3789 1.86624
18 1 5.35582 5.46948 0.147695
50 1 1.60925 5.55526 3.68906
27 1 1.74993 7.27302 1.82072
32 1 3.69768 9.09009 1.83293
62 1 1.9161 8.97883 3.69705
65 1 3.58643 7.24163 3.58109
28 1 0.00388212 9.10054 1.91006
29 1 3.60673 7.13423 10.8774
43 1 5.32873 10.7959 5.28219
64 1 0.0222737 8.98786 5.40642
68 1 3.59382 9.08236 5.56917
67 1 5.45307 7.29338 5.49637
54 1 5.56169 5.55197 3.6347
58 1 9.31315 5.41354 3.5347
61 1 10.7652 7.38562 3.62871
60 1 7.38333 5.55008 5.49423
66 1 5.57779 9.03512 3.53634
31 1 5.41604 7.25954 1.81916
24 1 7.32727 5.49336 1.82383
45 1 7.34162 10.8917 3.56386
35 1 9.26905 7.22921 1.68105
36 1 7.30285 9.122 1.83037
69 1 7.5256 7.20216 3.51558
70 1 9.1192 9.19183 3.68034
34 1 9.18256 9.22142 0.13467
9 1 7.25313 10.7485 10.8209
71 1 9.17799 7.23483 5.58362
2 1 1.77559 1.85146 10.8769
74 1 1.85967 1.91203 7.31364
80 1 3.69549 1.84831 9.12636
87 1 1.82191 3.5857 9.01105
89 1 3.65707 3.68099 7.23524
77 1 3.75368 0.115362 7.18886
92 1 3.54643 5.44634 9.23065
88 1 0.0321712 5.35039 9.22803
86 1 1.69329 5.30471 7.35277
73 1 0.12947 0.0191526 7.2256
55 1 5.41805 3.60914 5.52823
13 1 10.8646 3.46887 0.0503384
78 1 5.45955 1.9091 7.36268
1 1 0.0866744 10.9012 10.8573
10 1 8.90911 1.71405 0.0340389
48 1 7.17046 1.77108 5.61875
76 1 10.8889 1.93346 9.01715
40 1 0.0349309 1.91568 5.49025
85 1 10.7555 3.65169 7.20754
91 1 5.47298 3.68237 9.09992
82 1 9.12177 1.84309 7.28282
84 1 7.30414 1.94507 9.0906
93 1 7.31231 3.69409 7.36337
95 1 8.98559 3.67873 9.22152
79 1 5.57354 10.8464 9.07579
83 1 9.0688 0.113485 8.9598
94 1 9.03848 5.37542 7.22462
39 1 1.99932 10.8895 5.37474
26 1 1.90482 9.00745 10.8227
52 1 0.00658019 5.42946 5.54651
63 1 1.89111 7.34051 5.46448
75 1 1.89972 0.102165 9.17216
98 1 1.75343 9.15563 7.42545
99 1 1.96008 7.21413 9.00432
101 1 3.6628 7.18979 7.24186
104 1 3.6779 9.05723 9.13944
25 1 0.0379371 7.32682 10.8901
102 1 5.45173 9.08164 7.28555
90 1 5.38056 5.3635 7.25566
97 1 10.8553 7.26737 7.35732
103 1 5.40394 7.2045 9.17648
22 1 9.06836 5.50617 0.0422433
81 1 7.11475 10.9001 7.22188
30 1 5.43992 9.05241 0.132771
33 1 7.32882 7.27495 10.8752
72 1 7.22429 8.96788 5.31712
96 1 7.16857 5.57286 9.0582
100 1 10.7493 9.13847 9.10039
105 1 7.24043 7.39358 7.34593
106 1 9.06739 9.14592 7.17228
107 1 9.06615 7.25149 8.98204
108 1 7.34588 9.04684 9.08226
ITEM: TIMESTEP
200
ITEM: NUMBER OF ATOMS
108
ITEM: BOX BOUNDS pp pp pp
0.0000000000000000e+00 1.0902600000000000e+01
0.0000000000000000e+00 1.0902600000000000e+01
0.0000000000000000e+00 1.0902600000000000e+01
ITEM: ATOMS id type x y z
8 1 3.64155 1.92364 1.78263
15 1 1.69188 3.56589 1.87958
38 1 1.94848 1.88262 3.66415
53 1 3.75305 3.75354 3.57104
44 1 3.71233 1.8758 5.42255
19 1 5.54392 3.65227 1.81655
37 1 0.0288132 0.104056 3.65694
3 1 1.93882 10.7869 1.68175
16 1 0.00730037 5.38858 1.78628
56 1 3.58674 5.49561 5.4087
14 1 1.75448 5.37978 10.8623
17 1 3.65105 3.60997 0.05455
51 1 1.80221 3.6659 5.34678
5 1 3.76098 0.0379928 10.8439
4 1 0.0775897 1.65407 1.75985
49 1 0.0332937 3.59498 3.5128
42 1 5.38653 1.75795 3.61236
12 1 7.20276 1.69436 1.8863
23 1 8.99402 3.57243 1.87577
46 1 9.05627 1.89197 3.60967
57 1 7.24781 3.7998 3.63311
21 1 7.2757 3.59537 0.0259651
59 1 9.17257 3.64608 5.50232
7 1 5.46102 0.00793825 1.7772
11 1 9.00508 10.8662 1.88754
6 1 5.48201 1.81236 10.8327
47 1 8.97466 10.856 5.52688
41 1 3.64185 10.847 3.5534
20 1 3.51508 5.33997 1.73752
18 1 5.4801 5.35504 0.107497
50 1 1.64815 5.52183 3.67361
27 1 1.82805 7.2308 1.74
32 1 3.62276 8.8933 1.7884
62 1 1.79558 9.10931 3.52663
65 1 3.68482 7.24808 3.86789
28 1 10.8915 9.22348 1.9437
29 1 3.61496 7.2238 0.0615157
43 1 5.44855 10.8151 5.28645
64 1 0.0498083 9.05937 5.53648
68 1 3.57843 9.01609 5.61529
67 1 5.5541 7.1879 5.50904
54 1 5.50034 5.51618 3.57771
58 1 9.01989 5.36253 3.55896
61 1 10.8453 7.24948 3.69683
60 1 7.22169 5.44581 5.49698
66 1 5.43978 8.93303 3.68294
31 1 5.47956 7.24225 1.8474
24 1 7.27883 5.42799 1.7117
45 1 7.25687 0.0200955 3.7175
35 1 9.2164 7.29077 1.88021
36 1 7.40205 8.97158 1.81906
69 1 7.5088 7.21578 3.53088
70 1 9.16611 9.10051 3.78991
34 1 9.00177 9.12488 10.8534
9 1 7.20051 10.8777 10.8599
71 1 9.12274 7.22692 5.55561
2 1 1.81923 1.82957 0.0726596
74 1 1.85217 1.98604 7.1945
80 1 3.61782 1.82462 9.14083
87 1 1.86639 3.64012 9.11582
89 1 3.54805 3.71874 7.01726
77 1 3.63893 0.0336274 7.14249
92 1 3.63763 5.33477 9.15546
88 1 10.8203 5.46017 9.12169
86 1 1.87319 5.45104 7.29096
73 1 0.0727308 0.0613577 7.18864
55 1 5.37769 3.67456 5.32917
13 1 0.0249532 3.55105 0.00569175
78 1 5.36986 1.84067 7.26121
1 1 0.134975 10.8837 10.8033
10 1 8.98552 1.71462 0.0149401
48 1 7.2158 1.85115 5.33953
76 1 0.0550415 1.82308 9.0692
40 1 0.113866 1.80327 5.40484
85 1 10.8235 3.67427 7.38862
91 1 5.3299 3.57314 9.18772
82 1 9.00078 1.79448 7.21893
84 1 7.24042 1.87011 9.07126
93 1 7.19241 3.66273 7.36282
95 1 9.09501 3.63099 9.23473
79 1 5.37182 10.7649 8.93981
83 1 9.1354 0.0198764 9.01264
94 1 9.09616 5.4735 7.39916
39 1 1.85039 0.184108 5.37723
26 1 1.93256 9.08274 10.8969
52 1 10.8169 5.40243 5.46604
63 1 1.74102 7.23036 5.61705
75 1 1.81293 0.175391 9.03319
98 1 1.78873 9.17707 7.30558
99 1 1.85323 7.24577 9.14294
101 1 3.65696 7.31804 7.36292
104 1 3.55678 9.2107 9.00121
25 1 0.0257422 7.28746 10.8027
102 1 5.51366 9.02967 7.26568
90 1 5.48685 5.43907 7.16073
97 1 0.0714835 7.26969 7.3165
103 1 5.39119 7.32934 9.05094
22 1 9.11934 5.46542 0.0369113
81 1 7.26563 0.106699 7.22321
30 1 5.4355 9.0646 0.0485948
33 1 7.20553 7.40371 0.068289
72 1 7.30438 8.99667 5.33769
96 1 7.18328 5.51839 9.25709
100 1 0.00821263 9.12375 9.07132
105 1 7.25041 7.31884 7.34658
106 1 9.10425 9.10803 7.25347
107 1 9.03381 7.28305 9.09376
108 1 7.2064 9.17207 9.07075
ITEM: TIMESTEP
300
ITEM: NUMBER OF ATOMS
108
ITEM: BOX BOUNDS pp pp pp
0.0000000000000000e+00 1.0902600000000000e+01
0.0000000000000000e+00 1.0902600000000000e+01
0.0000000000000000e+00 1.0902600000000000e+01
ITEM: ATOMS id type x y z
8 1 3.64794 1.76067 1.81762
15 1 1.79655 3.56812 1.739
38 1 1.92624 1.9149 3.64273
53 1 3.65732 3.7572 3.58511
44 1 3.58533 1.75853 5.50478
19 1 5.48956 3.56962 1.75286
37 1 0.07543 10.8746 3.62503
3 1 2.02128 0.0111105 1.8656
16 1 10.8859 5.52461 1.85815
56 1 3.76184 5.48638 5.49991
14 1 1.80439 5.5582 10.8009
17 1 3.62537 3.68016 0.120182
51 1 1.8441 3.69435 5.44419
5 1 3.59178 10.86 10.8886
4 1 0.110046 1.63223 1.86764
49 1 10.9021 3.72246 3.61858
42 1 5.36371 1.87381 3.49874
12 1 7.27426 1.77592 1.75229
23 1 9.12582 3.48474 1.85801
46 1 9.17407 1.69351 3.6723
57 1 7.2361 3.67991 3.58951
21 1 7.25029 3.54018 10.8512
59 1 9.21168 3.62623 5.63546
7 1 5.5127 10.8142 1.92522
11 1 8.9939 10.8678 1.86138
6 1 5.41065 1.75768 10.813
47 1 9.04334 10.8649 5.51938
41 1 3.7399 10.8506 3.67208
20 1 3.62256 5.51849 1.78112
18 1 5.455 5.43529 10.8236
50 1 1.9334 5.44787 3.56721
27 1 1.7583 7.20546 1.80767
32 1 3.62949 8.91907 1.89211
62 1 1.73672 9.1317 3.61348
65 1 3.5818 7.28382 3.78038
28 1 10.8734 9.19256 1.71406
29 1 3.71477 7.25835 10.8803
43 1 5.51629 10.8795 5.56051
64 1 0.0760885 9.24654 5.54567
68 1 3.60508 9.0539 5.41155
67 1 5.53536 7.2158 5.4512
54 1 5.40298 5.51736 3.55768
58 1 8.98708 5.40206 3.7177
61 1 0.107237 7.15499 3.73234
60 1 7.29464 5.34212 5.47241
66 1 5.36477 8.97339 3.69876
31 1 5.49089 7.2095 1.85939
24 1 7.31258 5.47482 1.70717
45 1 7.206 10.8127 3.70984
35 1 9.15758 7.35094 1.85084
36 1 7.30155 9.0608 1.95534
69 1 7.19208 7.25905 3.74749
70 1 9.19222 9.03874 3.72602
34 1 9.05159 9.05956 10.7398
9 1 7.19638 0.102204 0.0172854
71 1 9.0041 7.20141 5.46118
2 1 1.95238 1.78011 0.0267368
74 1 1.79998 1.89129 7.15955
80 1 3.5552 1.81768 8.97521
87 1 1.84022 3.65649 9.17481
89 1 3.63925 3.67535 7.21943
77 1 3.51811 10.9011 7.18572
92 1 3.77795 5.405 8.96754
88 1 10.8749 5.54245 9.03362
86 1 1.9141 5.55357 7.28778
73 1 10.804 0.13948 7.22732
55 1 5.53919 3.73877 5.28852
13 1 10.8635 3.67967 10.8978
78 1 5.38522 1.81013 7.14277
1 1 10.8437 10.8273 10.8798
10 1 9.22406 1.74569 0.0277235
48 1 7.27008 2.00783 5.22367
76 1 10.8845 1.74948 9.12001
40 1 10.826 1.85298 5.3849
85 1 0.112369 3.62435 7.4317
91 1 5.38058 3.59369 9.04627
82 1 9.01962 1.88829 7.20392
84 1 7.169 1.65841 9.02739
93 1 7.16088 3.62021 7.25897
95 1 9.13623 3.55838 9.07189
79 1 5.28395 0.0843206 8.9602
83 1 9.12499 10.8469 9.12079
94 1 9.00176 5.51392 7.46608
39 1 1.76497 0.04874 5.45098
26 1 1.80547 9.14242 10.8851
52 1 10.8194 5.42857 5.44442
63 1 1.6928 7.204 5.52167
75 1 1.80955 0.0495439 8.87968
98 1 1.84746 9.1112 7.16688
99 1 1.75559 7.30968 9.17794
101 1 3.59706 7.29018 7.38922
104 1 3.51158 9.18529 8.97848
25 1 10.8639 7.32499 0.00360261
102 1 5.47719 9.08765 7.10577
90 1 5.46702 5.50056 7.35906
97 1 0.0422373 7.2572 7.37126
103 1 5.40975 7.35455 9.08388
22 1 9.1197 5.44278 0.0164505
81 1 7.27779 0.0424105 7.25129
30 1 5.38289 9.09971 10.7758
33 1 7.18886 7.301 0.0117213
72 1 7.33628 9.06094 5.57356
96 1 7.2798 5.37445 9.24773
100 1 0.173315 9.09892 9.03474
105 1 7.32863 7.12556 7.27664
106 1 9.10423 9.04796 7.39113
107 1 9.03557 7.33915 9.22944
108 1 7.19145 9.20488 9.04761
ITEM: TIMESTEP
400
ITEM: NUMBER OF ATOMS
108
ITEM: BOX BOUNDS pp pp pp
0.0000000000000000e+00 1.0902600000000000e+01
0.0000000000000000e+00 1.0902600000000000e+01
0.0000000000000000e+00 1.0902600000000000e+01
ITEM: ATOMS id type x y z
8 1 3.73282 1.68791 1.83677
15 1 1.88307 3.72596 1.68418
38 1 1.79156 1.85087 3.62864
53 1 3.57376 3.55009 3.60132
44 1 3.5995 1.81995 5.35973
19 1 5.40565 3.63052 1.69908
37 1 0.0197768 10.7809 3.61586
3 1 1.86501 0.022291 2.02514
16 1 10.8303 5.50181 1.85612
56 1 3.74907 5.46972 5.56963
14 1 1.87737 5.56616 0.0110134
17 1 3.63406 3.69309 10.8462
51 1 1.83544 3.77033 5.4966
5 1 3.53451 10.7898 0.0169885
4 1 0.0587027 1.81302 1.87907
49 1 10.8813 3.71014 3.73903
42 1 5.47753 1.90119 3.6329
12 1 7.34142 1.8842 1.76757
23 1 9.23815 3.56083 1.78349
46 1 9.13459 1.6485 3.60783
57 1 7.32753 3.54183 3.38038
21 1 7.32343 3.45224 10.8071
59 1 9.06687 3.71416 5.54269
7 1 5.41802 10.7486 1.86159
11 1 9.08309 10.8458 1.80274
6 1 5.25813 1.75783 0.0174002
47 1 9.1408 0.0405821 5.39365
41 1 3.71305 0.0130862 3.79822
20 1 3.73953 5.64998 1.78004
18 1 5.38718 5.51025 10.7842
50 1 2.01973 5.34936 3.59606
27 1 1.73824 7.34874 1.85229
32 1 3.6493 9.11886 1.90232
62 1 1.79053 9.01643 3.73654
65 1 3.46344 7.25795 3.51386
28 1 10.8972 9.04262 1.70894
29 1 3.67764 7.32591 10.7674
43 1 5.47969 0.105482 5.55544
64 1 10.7931 9.1167 5.46895
68 1 3.61702 9.10039 5.33174
67 1 5.38637 7.28162 5.53971
54 1 5.41996 5.4352 3.57963
58 1 9.13176 5.51448 3.68306
61 1 0.0368718 7.2588 3.64964
60 1 7.37709 5.3727 5.47866
66 1 5.48497 9.12887 3.71865
31 1 5.47214 7.3246 1.75663
24 1 7.35174 5.46483 1.84499
45 1 7.26463 10.8124 3.70012
35 1 8.99024 7.31027 1.82675
36 1 7.17111 9.09795 1.90891
69 1 7.09772 7.28156 3.7758
70 1 9.15285 9.01006 3.60894
34 1 9.04563 9.1453 0.0672695
9 1 7.2652 10.8683 0.0270289
71 1 9.09233 7.25493 5.45036
2 1 1.85067 1.72215 10.7687
74 1 1.69846 1.75597 7.25831
80 1 3.54278 1.85914 8.92027
87 1 1.8294 3.66541 9.16149
89 1 3.7486 3.61005 7.39525
77 1 3.58945 10.8762 7.19278
92 1 3.60418 5.56683 9.06594
88 1 0.0830295 5.47748 9.13165
86 1 1.80383 5.44871 7.3394
73 1 10.7289 0.0938872 7.32937
55 1 5.44159 3.64309 5.46791
13 1 0.0163643 3.7281 0.0131205
78 1 5.50237 1.88521 7.12355
1 1 10.852 10.889 0.0488998
10 1 9.24036 1.84342 0.0380453
48 1 7.32531 1.87778 5.39761
76 1 0.00868984 1.79971 9.14833
40 1 10.822 1.92821 5.44962
85 1 0.168878 3.65547 7.27981
91 1 5.5612 3.53077 8.98557
82 1 9.06198 1.85473 7.32189
84 1 7.25474 1.71082 9.0257
93 1 7.25425 3.56494 7.23135
95 1 9.04404 3.52589 8.98261
79 1 5.3401 0.139321 9.03028
83 1 9.01688 0.00867126 9.12006
94 1 9.07611 5.36845 7.31037
39 1 1.77734 10.8299 5.43946
26 1 1.76462 9.13202 0.0319512
52 1 0.0498652 5.47267 5.59435
63 1 1.86804 7.25323 5.34566
75 1 1.75073 10.8482 8.99834
98 1 1.81074 8.9734 7.1295
99 1 1.86962 7.34309 9.05819
101 1 3.60879 7.30555 7.19458
104 1 3.61407 9.03287 9.08689
25 1 10.8362 7.30601 0.109859
102 1 5.33875 9.07527 7.23986
90 1 5.53362 5.48442 7.40785
97 1 10.7588 7.2931 7.26619
103 1 5.54837 7.32839 9.05094
22 1 9.09023 5.41706 0.023419
81 1 7.27615 10.8592 7.27576
30 1 5.38994 9.22868 10.8187
33 1 7.25606 7.22615 10.8528
72 1 7.33847 9.07855 5.65886
96 1 7.35625 5.31982 9.04846
100 1 0.062995 9.13971 9.01273
105 1 7.26455 7.20441 7.31958
106 1 9.10522 9.00094 7.40639
107 1 9.04281 7.23345 9.12783
108 1 7.17433 9.13406 9.02428
ITEM: TIMESTEP
500
ITEM: NUMBER OF ATOMS
108
ITEM: BOX BOUNDS pp pp pp
0.0000000000000000e+00 1.0902600000000000e+01
0.0000000000000000e+00 1.0902600000000000e+01
0.0000000000000000e+00 1.0902600000000000e+01
ITEM: ATOMS id type x y z
8 1 3.59709 1.77936 1.86267
15 1 1.91832 3.72922 1.78238
38 1 1.64643 1.80991 3.69827
53 1 3.69433 3.45263 3.56402
44 1 3.58746 1.947 5.46325
19 1 5.38668 3.74661 1.70332
37 1 10.8204 10.8443 3.63888
3 1 1.67914 10.8425 1.92065
16 1 0.0342535 5.42973 1.83651
56 1 3.61009 5.37146 5.4904
14 1 1.8633 5.55276 0.139186
17 1 3.68657 3.64471 10.6597
51 1 1.91662 3.63912 5.5193
5 1 3.53026 10.8904 10.8966
4 1 0.0633442 1.99259 1.79945
49 1 0.0279428 3.66035 3.71409
42 1 5.64183 1.80634 3.73543
12 1 7.27175 1.69554 1.74965
23 1 9.18702 3.75633 1.8087
46 1 9.05039 1.87273 3.49209
57 1 7.40611 3.63342 3.53038
21 1 7.30979 3.58568 0.00115964
59 1 9.0257 3.6591 5.26209
7 1 5.39486 0.0952689 1.77569
11 1 9.14253 10.8985 1.81953
6 1 5.34793 1.77693 0.0232736
47 1 9.12436 0.013991 5.41796
41 1 3.59755 0.112716 3.68333
20 1 3.72452 5.50162 1.66404
18 1 5.5269 5.44993 10.8255
50 1 1.76388 5.38662 3.65039
27 1 1.83761 7.37024 1.78151
32 1 3.58454 9.23632 1.83278
62 1 1.80709 9.05741 3.67956
65 1 3.76275 7.28593 3.47192
28 1 10.8885 9.02772 1.98756
29 1 3.59266 7.44806 0.0226897
43 1 5.46077 0.0624757 5.36824
64 1 10.7314 8.92814 5.44719
68 1 3.67459 9.07816 5.45578
67 1 5.37555 7.28497 5.5056
54 1 5.47536 5.30797 3.69009
58 1 9.17286 5.53549 3.5913
61 1 10.8111 7.30259 3.58119
60 1 7.1926 5.52225 5.41188
66 1 5.53884 9.16158 3.76876
31 1 5.46392 7.43529 1.69216
24 1 7.22997 5.41077 1.89171
45 1 7.35371 0.0500974 3.67213
35 1 8.8686 7.22091 1.83125
36 1 7.21731 9.05123 1.73793
69 1 7.25935 7.26426 3.65999
70 1 8.93128 9.05017 3.55056
34 1 9.00584 9.07408 0.123766
9 1 7.26415 10.8657 0.0219202
71 1 9.07968 7.26508 5.46662
2 1 1.76236 1.77987 10.8749
74 1 1.76346 1.6911 7.28375
80 1 3.60646 1.74755 9.07984
87 1 1.82199 3.6572 9.06614
89 1 3.6276 3.69218 7.30944
77 1 3.64367 10.8981 7.22853
92 1 3.48105 5.58347 9.15806
88 1 0.0404711 5.43927 9.20333
86 1 1.8038 5.45435 7.33685
73 1 10.8554 10.7886 7.29598
55 1 5.37412 3.62927 5.51746
13 1 0.144913 3.66304 10.8909
78 1 5.51939 1.82558 7.29813
1 1 0.0934345 0.0650064 0.0498419
10 1 9.06733 1.85469 0.00892578
48 1 7.39384 1.6772 5.55188
76 1 0.030847 1.9057 9.08388
40 1 0.0627803 1.85109 5.52212
85 1 10.8494 3.63124 7.22005
91 1 5.59658 3.53287 9.1858
82 1 9.1362 1.72604 7.28803
84 1 7.32993 1.83228 9.13895
93 1 7.38886 3.60279 7.21266
95 1 9.13404 3.63459 9.11068
79 1 5.44263 0.0113381 9.08569
83 1 9.0072 0.0340298 9.15046
94 1 9.24987 5.33709 7.17786
39 1 1.73291 10.8946 5.45385
26 1 1.77764 9.05427 0.0392982
52 1 0.131508 5.5469 5.51605
63 1 1.9467 7.16944 5.37701
75 1 1.79985 10.7701 9.14713
98 1 1.70432 8.99796 7.20866
99 1 1.77914 7.33784 8.96596
101 1 3.61641 7.26792 7.16134
104 1 3.68908 9.07269 9.08153
25 1 10.86 7.1987 10.848
102 1 5.33552 9.12666 7.41298
90 1 5.52573 5.39019 7.24329
97 1 10.8383 7.2459 7.24278
103 1 5.52661 7.23748 9.05454
22 1 9.02607 5.39288 10.8808
81 1 7.29617 10.8841 7.27157
30 1 5.49387 9.16939 0.0245805
33 1 7.31602 7.2412 10.8517
72 1 7.28137 9.06974 5.46932
96 1 7.32567 5.39638 9.00561
100 1 10.7045 9.06375 9.15317
105 1 7.25994 7.36179 7.2744
106 1 9.01424 9.12461 7.28975
107 1 9.11697 7.14299 9.04736
108 1 7.25685 9.06581 9.11501
ITEM: TIMESTEP
600
ITEM: NUMBER OF ATOMS
108
ITEM: BOX BOUNDS pp pp pp
0.0000000000000000e+00 1.0902600000000000e+01
0.0000000000000000e+00 1.0902600000000000e+01
0.0000000000000000e+00 1.0902600000000000e+01
ITEM: ATOMS id type x y z
8 1 3.43339 1.8782 1.79801
15 1 1.92553 3.61273 1.9307
38 1 1.74154 1.78828 3.67912
53 1 3.75259 3.61826 3.59353
44 1 3.65857 1.78565 5.65253
19 1 5.45344 3.57223 1.80409
37 1 10.7497 0.0888237 3.7334
3 1 1.66163 10.8955 1.74431
16 1 0.1325 5.48246 1.76617
56 1 3.56288 5.35257 5.28071
14 1 1.80557 5.50128 0.00277584
17 1 3.62583 3.60296 10.7936
51 1 1.79313 3.50857 5.48455
5 1 3.60439 0.0903575 0.0190213
4 1 10.8992 1.96096 1.75922
49 1 0.0744984 3.63484 3.61381
42 1 5.61658 1.84726 3.66626
12 1 7.21411 1.75295 1.77074
23 1 9.03115 3.79319 1.80545
46 1 9.12283 1.99041 3.49859
57 1 7.19679 3.72431 3.76633
21 1 7.26024 3.75135 0.187067
59 1 9.14482 3.57051 5.28444
7 1 5.40532 0.174696 1.87147
11 1 9.16955 0.0859235 1.79025
6 1 5.55778 1.84124 10.8673
47 1 9.12886 10.808 5.49269
41 1 3.50255 0.119816 3.56484
20 1 3.67796 5.3624 1.72762
18 1 5.58512 5.46664 10.8569
50 1 1.75611 5.536 3.58663
27 1 1.90358 7.24344 1.88297
32 1 3.60559 9.24204 1.84151
62 1 1.85342 9.12198 3.66963
65 1 3.9531 7.27279 3.62659
28 1 10.7869 9.07457 1.93978
29 1 3.6338 7.39437 0.123141
43 1 5.42181 10.8672 5.4385
64 1 0.0308071 8.9957 5.37136
68 1 3.64103 9.12302 5.53137
67 1 5.50813 7.26318 5.3706
54 1 5.41479 5.35029 3.68304
58 1 9.07031 5.441 3.62976
61 1 10.8452 7.23772 3.60579
60 1 7.16745 5.53688 5.42805
66 1 5.46498 9.1452 3.53587
31 1 5.45958 7.2835 1.77645
24 1 7.08111 5.46257 1.81356
45 1 7.35871 0.0892484 3.54254
35 1 9.08127 7.14561 1.75321
36 1 7.27216 9.17907 1.75785
69 1 7.24775 7.21575 3.53073
70 1 8.86906 9.1228 3.60655
34 1 9.13751 8.97277 0.0473347
9 1 7.26376 0.0554554 10.8771
71 1 8.92728 7.16518 5.44374
2 1 1.86866 1.92794 0.112776
74 1 1.90101 1.75931 7.36603
80 1 3.66108 1.6815 9.15527
87 1 1.79909 3.60197 8.95447
89 1 3.57354 3.68803 7.35811
77 1 3.62476 0.0219484 7.27723
92 1 3.62368 5.52343 9.14763
88 1 0.00793894 5.39931 9.06442
86 1 1.8158 5.48522 7.25553
73 1 0.0804493 10.7033 7.27813
55 1 5.52963 3.54743 5.48851
13 1 0.109193 3.62854 10.8941
78 1 5.44903 1.74619 7.4514
1 1 10.8878 0.0204229 10.8975
10 1 9.06442 1.83081 0.0399005
48 1 7.34534 1.76214 5.54586
76 1 10.9013 1.81312 9.02239
40 1 10.9022 1.71884 5.51541
85 1 10.7753 3.54908 7.21462
91 1 5.47168 3.67627 9.12599
82 1 9.20268 1.70214 7.25695
84 1 7.33825 1.87679 9.15336
93 1 7.44524 3.65319 7.20718
95 1 9.21386 3.71565 9.19223
79 1 5.56349 10.8313 9.17356
83 1 9.15875 10.8984 9.18433
94 1 9.12959 5.48259 7.14384
39 1 1.76148 10.8745 5.46685
26 1 1.6818 9.03185 10.8862
52 1 0.0329643 5.47132 5.27267
63 1 1.88731 7.24966 5.41484
75 1 1.79568 10.7788 9.11029
98 1 1.76055 9.12156 7.27184
99 1 1.66133 7.34716 9.105
101 1 3.62438 7.19976 7.38653
104 1 3.5973 9.13285 9.08655
25 1 10.8679 7.2144 10.8815
102 1 5.5813 9.13453 7.28385
90 1 5.39713 5.3633 7.20048
97 1 0.0870103 7.23049 7.31356
103 1 5.34057 7.15152 9.11467
22 1 9.05023 5.45289 10.8912
81 1 7.22413 10.8998 7.32985
30 1 5.46563 9.05493 10.8893
33 1 7.27961 7.23539 10.839
72 1 7.17934 9.12079 5.32556
96 1 7.27498 5.49924 8.97592
100 1 10.6687 9.01354 9.23848
105 1 7.26851 7.33578 7.20181
106 1 8.98298 9.16727 7.19829
107 1 9.08735 7.16633 8.97303
108 1 7.39752 9.0482 9.19234
ITEM: TIMESTEP
700
ITEM: NUMBER OF ATOMS
108
ITEM: BOX BOUNDS pp pp pp
0.0000000000000000e+00 1.0902600000000000e+01
0.0000000000000000e+00 1.0902600000000000e+01
0.0000000000000000e+00 1.0902600000000000e+01
ITEM: ATOMS id type x y z
8 1 3.67734 1.81558 1.81851
15 1 1.76568 3.68923 1.92301
38 1 1.89278 1.78842 3.63432
53 1 3.62941 3.6131 3.76477
44 1 3.75222 1.68721 5.54278
19 1 5.43255 3.41386 1.8877
37 1 10.863 0.0730692 3.62115
3 1 1.7358 0.0652787 1.73421
16 1 0.0321496 5.43701 1.76619
56 1 3.59353 5.43785 5.38363
14 1 1.84418 5.37578 10.7069
17 1 3.59563 3.64571 0.133378
51 1 1.6806 3.53551 5.43638
5 1 3.7037 0.00271372 0.0905531
4 1 10.8517 1.7936 1.80872
49 1 0.0435526 3.65227 3.51604
42 1 5.33457 1.82709 3.67411
12 1 7.37608 2.03307 1.86224
23 1 9.00914 3.71582 1.83315
46 1 9.09305 1.88814 3.61098
57 1 7.12385 3.67574 3.72198
21 1 7.26777 3.70324 10.8905
59 1 9.21565 3.58365 5.58623
7 1 5.3719 0.0604898 1.85284
11 1 9.09153 0.0760441 1.76576
6 1 5.56333 1.9224 10.8102
47 1 9.01319 10.8215 5.49099
41 1 3.59664 0.0414082 3.62515
20 1 3.66206 5.37626 1.8605
18 1 5.34187 5.46281 0.00430538
50 1 1.98944 5.52963 3.574
27 1 1.90538 7.29972 1.94502
32 1 3.61695 9.10852 1.78917
62 1 1.87019 9.12445 3.59092
65 1 3.61366 7.31165 3.72722
28 1 10.8262 9.11856 1.80405
29 1 3.62446 7.20166 0.0373131
43 1 5.42652 10.8971 5.50773
64 1 0.0972656 9.0884 5.36104
68 1 3.65454 9.08301 5.49506
67 1 5.51157 7.3076 5.44586
54 1 5.39354 5.50163 3.56868
58 1 8.94773 5.35811 3.63037
61 1 10.9009 7.26459 3.63881
60 1 7.28715 5.34778 5.52538
66 1 5.40234 9.18193 3.37654
31 1 5.43635 7.19015 1.8083
24 1 7.21432 5.50978 1.82992
45 1 7.27774 0.100716 3.57046
35 1 9.22009 7.18551 1.82556
36 1 7.29543 9.22494 1.77147
69 1 7.19416 7.27797 3.48706
70 1 9.14468 9.06934 3.65735
34 1 9.09671 9.01681 0.0825691
9 1 7.36573 0.0217737 0.00136397
71 1 9.02996 7.32604 5.32468
2 1 1.79477 1.89552 10.8189
74 1 1.85238 1.8119 7.34971
80 1 3.6741 1.80293 9.15304
87 1 1.75022 3.60641 9.05588
89 1 3.66215 3.58499 7.30027
77 1 3.68081 10.787 7.40941
92 1 3.65455 5.35442 9.13875
88 1 0.0298734 5.42359 8.89517
86 1 1.80298 5.42432 7.113
73 1 10.893 10.8655 7.30109
55 1 5.5049 3.47087 5.61626
13 1 10.8713 3.69066 0.00148978
78 1 5.45939 1.80443 7.42629
1 1 10.7945 10.8897 10.8613
10 1 9.13857 1.93022 0.0286221
48 1 7.27425 1.84544 5.43863
76 1 0.0260639 1.6901 9.10903
40 1 10.8337 1.69596 5.47954
85 1 0.0139027 3.61909 7.22999
91 1 5.43133 3.76145 8.95625
82 1 9.06933 1.72395 7.31357
84 1 7.36855 1.9462 9.04276
93 1 7.37606 3.63215 7.29779
95 1 9.05701 3.6486 9.10831
79 1 5.51989 10.8083 9.18749
83 1 9.13746 10.8867 9.06775
94 1 9.01876 5.53273 7.18796
39 1 1.90001 10.8746 5.4629
26 1 1.69925 9.09672 0.0720168
52 1 10.8002 5.36707 5.35835
63 1 1.84199 7.38458 5.4595
75 1 1.74581 0.0357621 9.12025
98 1 1.98063 9.02023 7.32359
99 1 1.81777 7.2735 9.25138
101 1 3.62318 7.27352 7.36806
104 1 3.58399 9.08926 9.14928
25 1 0.0200428 7.22973 0.110752
102 1 5.60032 9.01472 7.203
90 1 5.31368 5.47363 7.21243
97 1 0.0279642 7.30136 7.16505
103 1 5.38389 7.33305 9.09967
22 1 9.13138 5.53043 10.8708
81 1 7.27897 0.0454274 7.37248
30 1 5.40556 9.0382 10.8852
33 1 7.23718 7.26296 10.8939
72 1 7.1718 9.16903 5.32057
96 1 7.22746 5.4751 8.97799
100 1 0.0447682 9.03911 8.97545
105 1 7.18461 7.21702 7.25477
106 1 9.08483 8.9854 7.21183
107 1 9.04645 7.25874 8.98005
108 1 7.40147 9.05434 9.11729
ITEM: TIMESTEP
800
ITEM: NUMBER OF ATOMS
108
ITEM: BOX BOUNDS pp pp pp
0.0000000000000000e+00 1.0902600000000000e+01
0.0000000000000000e+00 1.0902600000000000e+01
0.0000000000000000e+00 1.0902600000000000e+01
ITEM: ATOMS id type x y z
8 1 3.73443 1.74815 1.81143
15 1 1.74743 3.64483 1.71087
38 1 1.87769 1.80172 3.61407
53 1 3.54155 3.55763 3.8302
44 1 3.58472 1.75101 5.48085
19 1 5.41416 3.68884 1.87491
37 1 0.132725 10.8577 3.52322
3 1 1.90464 0.102189 1.79946
16 1 10.8678 5.42261 1.88674
56 1 3.69487 5.53141 5.63688
14 1 1.77707 5.32411 10.8902
17 1 3.62772 3.60067 0.162959
51 1 1.74602 3.60645 5.38764
5 1 3.66042 10.8743 10.8912
4 1 0.0152137 1.7703 1.82876
49 1 10.7909 3.62861 3.64411
42 1 5.28715 1.71817 3.73296
12 1 7.38053 1.93594 1.85211
23 1 9.1666 3.68032 1.81461
46 1 9.05359 1.78013 3.81383
57 1 7.2151 3.58259 3.61342
21 1 7.25113 3.7201 10.6739
59 1 9.04979 3.57398 5.62554
7 1 5.58427 0.0510385 1.65493
11 1 8.98673 0.00988234 1.8697
6 1 5.47248 1.87574 10.8266
47 1 8.97294 0.0180733 5.42497
41 1 3.72108 10.7565 3.68529
20 1 3.60702 5.46411 1.92994
18 1 5.31536 5.36252 0.0471545
50 1 1.87592 5.36749 3.76739
27 1 1.77165 7.3165 1.74452
32 1 3.58527 8.96055 1.69985
62 1 1.79134 9.18732 3.53144
65 1 3.42553 7.39358 3.67673
28 1 0.087932 9.1437 1.78424
29 1 3.5513 7.10057 10.8761
43 1 5.53155 0.00822276 5.52079
64 1 0.0350102 9.2698 5.48377
68 1 3.76642 9.07893 5.40754
67 1 5.43104 7.27661 5.41651
54 1 5.4587 5.53025 3.6516
58 1 8.98077 5.40613 3.68695
61 1 0.125674 7.23174 3.65639
60 1 7.26478 5.30288 5.48573
66 1 5.44118 9.07105 3.61754
31 1 5.32385 7.30346 1.77058
24 1 7.38978 5.37635 1.73673
45 1 7.16885 0.0735259 3.63799
35 1 9.0618 7.31404 1.98436
36 1 7.29208 9.07064 1.82062
69 1 7.26189 7.42119 3.64451
70 1 9.2894 9.12762 3.57108
34 1 9.04999 9.07825 10.8654
9 1 7.36717 0.0680873 10.9019
71 1 9.12216 7.38277 5.29847
2 1 1.71255 1.77768 10.8297
74 1 1.77857 1.77054 7.19434
80 1 3.6473 1.94208 9.14615
87 1 1.79096 3.6159 9.12118
89 1 3.55793 3.50708 7.16301
77 1 3.74983 10.798 7.44663
92 1 3.56155 5.30645 8.97447
88 1 10.8955 5.57291 8.92541
86 1 1.82768 5.40447 7.12687
73 1 10.8569 0.0700975 7.20582
55 1 5.34824 3.64365 5.61939
13 1 10.791 3.72027 10.8709
78 1 5.51289 1.76086 7.31047
1 1 10.8375 10.8477 10.8959
10 1 9.0983 1.93566 10.8425
48 1 7.24265 1.80813 5.41438
76 1 10.8275 1.85758 9.11489
40 1 10.9008 1.75786 5.42119
85 1 0.122711 3.61761 7.36287
91 1 5.47343 3.6556 9.01948
82 1 9.03145 1.8437 7.29643
84 1 7.26763 1.79759 9.10308
93 1 7.18218 3.61174 7.3201
95 1 9.07779 3.68217 8.95148
79 1 5.45628 10.8822 9.12535
83 1 9.01148 10.8111 8.99373
94 1 9.09096 5.50877 7.30166
39 1 1.9323 0.00630266 5.52868
26 1 1.85529 9.17888 0.0771402
52 1 10.8413 5.45161 5.48601
63 1 1.79032 7.31182 5.46814
75 1 1.87363 0.0402816 9.15196
98 1 1.92691 9.02728 7.31754
99 1 1.94776 7.17061 9.0925
101 1 3.62801 7.295 7.22054
104 1 3.63283 9.02923 9.30232
25 1 0.132964 7.27984 0.00317139