LAMMPS (29 Sep 2021)
# bulk water

units           metal
boundary        p p p
atom_style      atomic

neighbor        2.0 bin
neigh_modify    every 10 delay 0 check no

read_data	copper.lmp
Reading data file ...
  orthogonal box = (0.0000000 0.0000000 0.0000000) to (10.902600 10.902600 10.902600)
  1 by 1 by 1 MPI processor grid
  reading atoms ...
  108 atoms
  reading velocities ...
  108 velocities
  read_data CPU = 0.001 seconds
group       Cu  type 1
108 atoms in group Cu

mass 		1 63.546

# pair_style deepmd fathergraph.pb graph.pb out_file graph.out out_freq 10 atomic relative 1.0
pair_style  deepmd CuSingleTanh.pb
pair_coeff * * Cu

velocity        all create 330.0 23456789

fix             1 all nvt temp 330.0 330.0 0.5
timestep        0.0005
thermo_style    custom step pe ke etotal temp press vol
thermo          100
dump		1 all custom 100 Cu.dump id type x y z

compute rdf all rdf 100 1 1
fix 2 all ave/time 100 1 100 c_rdf[*] file CuTanh_cu.rdf mode vector

run             100000

CITE-CITE-CITE-CITE-CITE-CITE-CITE-CITE-CITE-CITE-CITE-CITE-CITE

Your simulation uses code contributions which should be cited:

- USER-DEEPMD package:

@article{Wang_ComputPhysCommun_2018_v228_p178,
  author = {Wang, Han and Zhang, Linfeng and Han, Jiequn and E, Weinan},
  doi = {10.1016/j.cpc.2018.03.016},
  url = {https://doi.org/10.1016/j.cpc.2018.03.016},
  year = 2018,
  month = {jul},
  publisher = {Elsevier {BV}},
  volume = 228,
  journal = {Comput. Phys. Commun.},
  title = {{DeePMD-kit: A deep learning package for many-body potential energy representation and molecular dynamics}},
  pages = {178--184}
}

CITE-CITE-CITE-CITE-CITE-CITE-CITE-CITE-CITE-CITE-CITE-CITE-CITE

Neighbor list info ...
  update every 10 steps, delay 0 steps, check no
  max neighbors/atom: 2000, page size: 100000
  master list distance cutoff = 8
  ghost atom cutoff = 8
  binsize = 4, bins = 3 3 3
  2 neighbor lists, perpetual/occasional/extra = 1 1 0
  (1) pair deepmd, perpetual
      attributes: full, newton on
      pair build: full/bin/atomonly
      stencil: full/bin/3d
      bin: standard
  (2) compute rdf, occasional, half/full from (1)
      attributes: half, newton on
      pair build: halffull/newton
      stencil: none
      bin: none
Per MPI rank memory allocation (min/avg/max) = 4.512 | 4.512 | 4.512 Mbytes
Step PotEng KinEng TotEng Temp Press Volume 
       0   -398.16768    4.5641757   -393.60351          330    24613.069    1295.9559 
     100   -397.84093    4.2439614   -393.59697     306.8478    25249.122    1295.9559 
     200     -398.351    4.7626316   -393.58837     344.3488    24698.015    1295.9559 
     300   -398.17097    4.5866383   -393.58433    331.62409    24482.258    1295.9559 
     400   -398.12784    4.5538353     -393.574    329.25237    25078.674    1295.9559 
     500   -398.41681    4.8522057    -393.5646    350.82521     24335.28    1295.9559 
     600   -397.71998    4.1645447   -393.55543    301.10579    26065.356    1295.9559 
     700   -398.49282    4.9488145   -393.54401    357.81024    24410.318    1295.9559 
     800   -397.94516     4.410552   -393.53461    318.89267    25080.987    1295.9559 
     900   -397.85092    4.3275284    -393.5234    312.88988    26229.868    1295.9559 
    1000   -398.26525    4.7581527    -393.5071    344.02497    25185.756    1295.9559 
    1100   -397.98538     4.490796   -393.49458    324.69448     25051.99    1295.9559 
    1200   -398.32797     4.848589   -393.47938    350.56371    25179.633    1295.9559 
    1300   -397.71245    4.2481545   -393.46429    307.15096    26387.602    1295.9559 
    1400    -398.1574     4.714249   -393.44315    340.85063     25447.63    1295.9559 
    1500   -398.14437    4.7262255   -393.41814    341.71656    25658.648    1295.9559 
    1600   -397.86795    4.4705738   -393.39738    323.23238    25840.795    1295.9559 
    1700    -398.2042    4.8431734   -393.36103    350.17215    25872.475    1295.9559 
    1800   -397.50501    4.1745984   -393.33041     301.8327    27665.184    1295.9559 
    1900   -398.07892    4.7934879   -393.28543    346.57978    25823.873    1295.9559 
    2000   -398.21515    4.9780608   -393.23709    359.92481    25674.313    1295.9559 
    2100   -397.62911    4.4351508   -393.19396    320.67121    27276.859    1295.9559 
    2200   -397.94633    4.8018595   -393.14447    347.18506     26518.93    1295.9559 
    2300   -398.03836    4.9460372   -393.09233    357.60943    26242.747    1295.9559 
    2400   -397.90204    4.8630291   -393.03901    351.60776    26614.625    1295.9559 
    2500   -397.55151    4.5621927   -392.98931    329.85662    27657.588    1295.9559 
    2600   -398.15319    5.2173279   -392.93586    377.22435    26023.199    1295.9559 
    2700   -397.21242    4.3192557   -392.89317    312.29174    28591.007    1295.9559 
    2800   -397.92707    5.0782567   -392.84882     367.1692    27032.492    1295.9559 
    2900   -398.04819    5.2348818   -392.81331    378.49353    26248.758    1295.9559 
    3000   -397.38779    4.6042538   -392.78354    332.89773    28356.686    1295.9559 
    3100   -398.18591    5.4290546   -392.75685    392.53266    26038.915    1295.9559 
    3200   -397.01859    4.2727903    -392.7458    308.93219    29031.691    1295.9559 
    3300    -398.2203    5.4890185   -392.73128    396.86818    26225.669    1295.9559 
    3400   -397.50386    4.7699658   -392.73389    344.87908    27496.913    1295.9559 
    3500   -397.55878    4.8182727   -392.74051    348.37177    27918.373    1295.9559 
    3600   -398.30169    5.5433372   -392.75836    400.79554     25452.46    1295.9559 
    3700    -397.3397    4.5513696   -392.78833    329.07409    28359.939    1295.9559 
    3800   -398.01755    5.1872934   -392.83025    375.05279      26516.1    1295.9559 
    3900    -397.2535    4.3708585   -392.88264    316.02274    28541.949    1295.9559 
    4000   -397.81972    4.8750585   -392.94466    352.47751    26822.735    1295.9559 
    4100   -398.01462    4.9972709   -393.01735    361.31374    26209.698    1295.9559 
    4200   -398.03787    4.9379728   -393.09989    357.02636    26021.973    1295.9559 
    4300   -397.82145    4.6326979   -393.18876     334.9543    26299.125    1295.9559 
    4400    -398.1862    4.9089918   -393.27721    354.93097    25243.084    1295.9559 
    4500   -397.67232    4.2917282   -393.38059    310.30144    26814.391    1295.9559 
    4600   -398.29182    4.8264699   -393.46535    348.96445    24754.803    1295.9559 
    4700   -398.23563    4.6786399   -393.55699    338.27602    25288.005    1295.9559 
    4800   -397.43782    3.7931053   -393.64471    274.24991    26978.066    1295.9559 
    4900    -398.8725    5.1620464   -393.71045    373.22737    23038.353    1295.9559 
    5000   -397.51472    3.7344311   -393.78029    270.00763    26987.216    1295.9559 
    5100   -399.06379    5.2314736   -393.83231    378.24711    22180.385    1295.9559 
    5200   -397.99445     4.114142   -393.88031    297.46156     25394.97    1295.9559 
    5300   -397.60418    3.6837163   -393.92046    266.34084    26793.418    1295.9559 
    5400   -399.40069    5.4554354   -393.94525    394.44005    21358.566    1295.9559 
    5500   -397.96757    3.9907198   -393.97685    288.53787     25423.43    1295.9559 
    5600    -398.0322    4.0381013    -393.9941    291.96366    25934.741    1295.9559 
    5700   -398.72752    4.7190915   -394.00843    341.20076    22925.182    1295.9559 
    5800   -398.09552    4.0750598   -394.02046    294.63584    25242.008    1295.9559 
    5900   -398.73714    4.7192121   -394.01793    341.20948    23399.156    1295.9559 
    6000   -398.09717    4.0767528   -394.02042    294.75824    25024.433    1295.9559 
    6100   -398.24918    4.2360601   -394.01312    306.27652    25015.971    1295.9559 
    6200   -398.68563    4.6841212   -394.00151    338.67232    23329.412    1295.9559 
    6300   -398.18927    4.1978249   -393.99144    303.51203    25074.242    1295.9559 
    6400   -398.31263     4.339795   -393.97284    313.77678     24974.44    1295.9559 
    6500   -398.33335    4.3844018   -393.94895    317.00195    24510.843    1295.9559 
    6600   -398.04944    4.1239536   -393.92549    298.17096    25601.482    1295.9559 
    6700   -398.37236     4.476467   -393.89589    323.65846    24631.401    1295.9559 
    6800   -398.54122    4.6817335   -393.85948    338.49969    23936.345    1295.9559 
    6900   -397.85817    4.0280352   -393.83013    291.23586    26550.212    1295.9559 
    7000   -398.71243    4.9283445   -393.78409    356.33021    23610.261    1295.9559 
    7100     -398.039    4.2967415   -393.74226    310.66391    25556.938    1295.9559 
    7200   -398.17498    4.4764047   -393.69857    323.65396    25407.631    1295.9559 
    7300   -398.22444    4.5760021   -393.64844    330.85507    24978.957    1295.9559 
    7400   -397.86759    4.2721759   -393.59541    308.88777    25819.775    1295.9559 
    7500   -398.48276    4.9486834   -393.53408    357.80076    24728.641    1295.9559 
    7600   -397.46046     3.987025   -393.47343    288.27072    27505.451    1295.9559 
    7700   -398.62214    5.2154978   -393.40665    377.09203    24087.581    1295.9559 
    7800   -397.69126      4.35783   -393.33343    315.08075    27065.293    1295.9559 
    7900   -397.90701    4.6427376   -393.26427     335.6802    26359.346    1295.9559 
    8000   -398.10943    4.9243341    -393.1851    356.04025    25798.452    1295.9559 
    8100   -397.89466    4.7840291   -393.11063    345.89589    26565.834    1295.9559 
    8200   -397.85667    4.8276967   -393.02897    349.05315    26433.396    1295.9559 
    8300   -397.81127    4.8606168   -392.95065    351.43335    26580.095    1295.9559 
    8400   -397.79367    4.9250726   -392.86859    356.09364    26798.247    1295.9559 
    8500   -397.79745    5.0176577   -392.77979    362.78775    26919.507    1295.9559 
    8600   -397.62379    4.9275878    -392.6962     356.2755    27638.352    1295.9559 
    8700   -397.51991    4.9145137   -392.60539    355.33021    27461.623    1295.9559 
    8800   -397.61025    5.0889694   -392.52128    367.94374    27297.436    1295.9559 
    8900   -397.46042    5.0303112   -392.43011    363.70263    28373.776    1295.9559 
    9000    -397.8169     5.488759   -392.32814    396.84942    27138.127    1295.9559 
    9100   -397.53093    5.2915594   -392.23937    382.59145    27641.266    1295.9559 
    9200   -397.11404    4.9654897   -392.14856    359.01589    28936.564    1295.9559 
    9300   -397.35187    5.2974777   -392.05439    383.01936    28790.839    1295.9559 
    9400   -397.34351    5.3857857   -391.95772    389.40422    29002.086    1295.9559 
    9500   -397.17481    5.3054569   -391.86936    383.59627     28699.87    1295.9559 
    9600   -397.30322    5.5299046   -391.77331    399.82433    29437.985    1295.9559 
    9700   -397.08691    5.4015931   -391.68532    390.54713    29537.044    1295.9559 
    9800    -397.4859    5.8889426   -391.59696    425.78357    28542.181    1295.9559 
    9900   -396.89022    5.3584708   -391.53175    387.42929    30776.504    1295.9559 
   10000    -397.1187    5.6482345   -391.47047    408.37985    29074.158    1295.9559 
   10100   -397.22821     5.796749   -391.43146    419.11778    29438.955    1295.9559 
   10200   -396.92076     5.514501   -391.40626    398.71062    30438.396    1295.9559 
   10300   -397.29406    5.8869435   -391.40712    425.63904    29210.179    1295.9559 
   10400   -397.25463    5.8150131   -391.43962    420.43831    29654.373    1295.9559 
   10500   -396.36683    4.8579762   -391.50886    351.24242    31663.388    1295.9559 
   10600   -397.49897    5.8994366   -391.59954    426.54231    28461.847    1295.9559 
   10700   -397.26338     5.515906   -391.74747     398.8122    29568.287    1295.9559 
   10800   -397.07022    5.1544132   -391.91581    372.67548    29410.648    1295.9559 
   10900   -397.30684    5.2195835   -392.08726    377.38743    28657.622    1295.9559 
   11000   -397.41522    5.1516112   -392.26361    372.47288    28209.751    1295.9559 
   11100   -397.47599    5.0620055   -392.41398     365.9942    28519.506    1295.9559 
   11200   -397.92171    5.3484604   -392.57325    386.70551    26845.783    1295.9559 
   11300   -397.30513    4.6154122   -392.68972    333.70451     27672.17    1295.9559 
   11400   -397.88797    5.0964139   -392.79155      368.482     26813.35    1295.9559 
   11500   -397.46545    4.5800123   -392.88544    331.14502    27539.984    1295.9559 
   11600   -398.40264    5.4376043   -392.96504    393.15082    24844.761    1295.9559 
   11700   -397.57162    4.5222282   -393.04939     326.9671    27314.122    1295.9559 
   11800   -398.06565    4.9434022   -393.12225    357.41891    25024.403    1295.9559 
   11900    -397.6367    4.4456899   -393.19101    321.43321    27082.134    1295.9559 
   12000   -398.28348    5.0248376   -393.25864    363.30688    25080.647    1295.9559 
   12100   -397.94646    4.6233687   -393.32309    334.27978    25398.201    1295.9559 
   12200   -397.76972    4.3793153    -393.3904    316.63419    26496.838    1295.9559 
   12300   -398.02482    4.5750402   -393.44978    330.78552    25356.296    1295.9559 
   12400   -398.23077    4.7275154   -393.50326    341.80982    25292.606    1295.9559 
   12500   -398.15489    4.5883024   -393.56659    331.74441    25464.252    1295.9559 
   12600   -397.81456    4.1937025   -393.62086    303.21396    25990.509    1295.9559 
   12700   -398.45859    4.7860267   -393.67257    346.04032    24239.018    1295.9559 
   12800    -398.3612    4.6341229   -393.72707    335.05734    24347.131    1295.9559 
   12900   -397.96894    4.1943552   -393.77459    303.26116    25762.313    1295.9559 
   13000   -398.69522    4.8780413   -393.81718    352.69317    23526.564    1295.9559 
   13100    -397.8998      4.04209   -393.85771    292.25205    25456.193    1295.9559 
   13200   -398.53728    4.6470211   -393.89026     335.9899    24024.673    1295.9559 
   13300   -398.10028    4.1743304   -393.92595    301.81332    25134.195    1295.9559 
   13400   -398.37351    4.4194587   -393.95405    319.53664    24222.937    1295.9559 
   13500   -398.36274    4.3784949   -393.98425    316.57487    23886.954    1295.9559 
   13600   -398.22852     4.223331   -394.00519    305.35617    24589.056    1295.9559 
   13700   -398.19062    4.1666535   -394.02396    301.25826    25135.214    1295.9559 
   13800   -398.53436    4.4972627   -394.03709    325.16204    23624.759    1295.9559 
   13900    -398.1706     4.123115   -394.04748    298.11033    24775.824    1295.9559 
   14000   -398.40764    4.3535539   -394.05409    314.77157    24108.768    1295.9559 
   14100   -398.54081    4.4882148   -394.05259    324.50785    23824.201    1295.9559 
   14200   -398.23688    4.1863202   -394.05056    302.68021    24656.446    1295.9559 
   14300   -398.42456    4.3891088   -394.03545    317.34228    24212.215    1295.9559 
   14400   -398.36441    4.3430466   -394.02136    314.01188     24064.12    1295.9559 
   14500   -398.18721    4.1835564   -394.00365    302.48038    24617.254    1295.9559 
   14600   -398.58323    4.6093755   -393.97385    333.26804    23857.731    1295.9559 
   14700    -398.0611    4.1183253   -393.94277    297.76403    24949.211    1295.9559 
   14800   -398.71264    4.8154432   -393.89719    348.16719    22952.199    1295.9559 
   14900   -397.88739    4.0355451   -393.85184    291.77884    25314.251    1295.9559 
   15000   -397.96436    4.1656769   -393.79869    301.18766    25492.434    1295.9559 
   15100   -398.73343    4.9989732   -393.73445    361.43682    22774.406    1295.9559 
   15200   -397.90737    4.2411193   -393.66626    306.64231    25626.333    1295.9559 
   15300   -398.10534    4.5147287   -393.59061    326.42487    25422.474    1295.9559 
   15400   -397.82029    4.3024669   -393.51782    311.07787    25664.952    1295.9559 
   15500   -398.16708     4.728943   -393.43814    341.91304    25338.873    1295.9559 
   15600   -398.26799    4.9157707   -393.35222     355.4211    24939.342    1295.9559 
   15700   -397.71411    4.4338193   -393.28029    320.57494    26126.368    1295.9559 
   15800   -398.20986    5.0061425   -393.20372    361.95518    25318.164    1295.9559 
   15900   -397.52773    4.3925893   -393.13514    317.59393    27281.692    1295.9559 
   16000    -398.2551    5.1838902   -393.07121    374.80673    25436.323    1295.9559 
   16100   -397.79321    4.7765517   -393.01666    345.35525    26632.365    1295.9559 
   16200   -397.57127    4.6003305   -392.97094    332.61407     26928.48    1295.9559 
   16300   -398.02203    5.0949639   -392.92707    368.37716    26426.983    1295.9559 
   16400   -397.59987    4.7027594   -392.89711     340.0199    27593.197    1295.9559 
   16500   -398.21518    5.3435357   -392.87165    386.34945    25138.619    1295.9559 
   16600   -397.42359    4.5673981   -392.85619    330.23299     28213.27    1295.9559 
   16700   -397.43817    4.5907678    -392.8474    331.92267     28058.98    1295.9559 
   16800   -398.26947    5.4267867   -392.84268    392.36868    25181.583    1295.9559 
   16900    -397.8971     5.049423   -392.84768    365.08445    26961.684    1295.9559 
   17000   -396.98948    4.1268027   -392.86268    298.37697    29255.193    1295.9559 
   17100   -398.62651    5.7469489   -392.87956    415.51711    24130.188    1295.9559 
   17200   -397.58628    4.6781896   -392.90809    338.24345    27538.446    1295.9559 
   17300   -397.76857    4.8271262   -392.94145     349.0119    27535.451    1295.9559 
   17400   -397.92862    4.9426008   -392.98602    357.36097    26105.032    1295.9559 
   17500   -397.75302    4.7203283   -393.03269    341.29018    26501.418    1295.9559 
   17600   -397.91922    4.8344242    -393.0848    349.53957    26738.625    1295.9559 
   17700   -398.05344    4.9053949   -393.14804     354.6709    26061.343    1295.9559 
   17800    -397.8679    4.6534327   -393.21446    336.45348    26262.693    1295.9559 
   17900   -398.24053    4.9492285    -393.2913    357.84017    25455.238    1295.9559 
   18000   -397.71275    4.3366782   -393.37607    313.55142    26968.037    1295.9559 
   18100   -398.04118    4.5763809    -393.4648    330.88246    25688.944    1295.9559 
   18200   -398.36206    4.8087191   -393.55334    347.68102        24791    1295.9559 
   18300   -397.88562    4.2377552   -393.64787    306.39908    26314.496    1295.9559 
   18400   -398.10324    4.3618996   -393.74134    315.37499    25273.896    1295.9559 
   18500   -398.68454     4.854505   -393.83003    350.99145    23595.298    1295.9559 
   18600   -398.09359    4.1761289   -393.91746    301.94336    25912.519    1295.9559 
   18700   -398.28752    4.2984641   -393.98906    310.78846    24552.162    1295.9559 
   18800   -398.54156    4.4902821   -394.05128    324.65733    23731.198    1295.9559 
   18900   -398.35762    4.2567723   -394.10085    307.77406    24465.312    1295.9559 
   19000   -398.20538    4.0689173   -394.13646    294.19172    24800.331    1295.9559 
   19100   -398.47786    4.3181965   -394.15966    312.21516    23825.084    1295.9559 
   19200   -398.56777    4.3975493   -394.17022    317.95254    23588.223    1295.9559 
   19300   -398.35634    4.1814154   -394.17493    302.32558    24194.436    1295.9559 
   19400   -398.39426    4.2207615    -394.1735    305.17039    24179.939    1295.9559 
   19500   -398.52597    4.3591233   -394.16685    315.17426    23499.562    1295.9559 
   19600   -398.45696     4.301297   -394.15567    310.99329    23849.457    1295.9559 
   19700   -398.27116    4.1300064   -394.14115    298.60859    24738.018    1295.9559 
   19800   -398.45243    4.3250791   -394.12735    312.71278    23827.306    1295.9559 
   19900   -398.46508     4.356732   -394.10835    315.00136    23838.194    1295.9559 
   20000   -398.51983    4.4331571   -394.08668    320.52706    23662.902    1295.9559 
   20100   -398.03051    3.9681369   -394.06237    286.90508    25450.472    1295.9559 
   20200   -398.63858    4.6061045   -394.03247    333.03155    23811.404    1295.9559 
   20300   -398.15179    4.1534671   -393.99833    300.30486    24768.937    1295.9559 
   20400   -398.21897    4.2610373   -393.95794    308.08242    24828.779    1295.9559 
   20500   -398.63028    4.7149625   -393.91532    340.90222     23597.93    1295.9559 
   20600   -398.11934    4.2494026   -393.86993    307.24121    25258.616    1295.9559 
   20700   -398.19888    4.3731151   -393.82576    316.18589    24981.757    1295.9559 
   20800   -398.04412    4.2704507   -393.77367    308.76303    25300.569    1295.9559 
   20900   -398.30083    4.5832679   -393.71757     331.3804    24678.261    1295.9559 
   21000   -398.23267    4.5704509   -393.66222    330.45371    25504.815    1295.9559 
   21100   -398.18794    4.5794213   -393.60852    331.10229    25296.203    1295.9559 
   21200   -398.18768     4.636602   -393.55108    335.23658    25394.375    1295.9559 
   21300   -398.16708    4.6714132   -393.49567     337.7535    25263.609    1295.9559 
   21400   -397.75425    4.3113353   -393.44291    311.71908    27284.793    1295.9559 
   21500   -398.09597    4.7106422   -393.38533    340.58985    25946.938    1295.9559 
   21600   -398.21408     4.879594   -393.33449    352.80544    24971.826    1295.9559 
   21700   -397.60222    4.3165308   -393.28569    312.09473    27643.728    1295.9559 
   21800   -397.83236    4.5916153   -393.24075    331.98394    26296.281    1295.9559 
   21900   -398.31429    5.1171918    -393.1971    369.98428    25011.746    1295.9559 
   22000    -397.7819    4.6259864   -393.15592    334.46905    26964.183    1295.9559 
   22100   -397.84888     4.727164   -393.12172    341.78442     26109.45    1295.9559 
   22200   -398.09661    5.0119964   -393.08461    362.37842     25889.18    1295.9559 
   22300   -397.66028    4.6038015   -393.05648    332.86503    27216.043    1295.9559 
   22400   -398.17866     5.146046   -393.03261    372.07051     25489.43    1295.9559 
   22500   -397.52767    4.5108058   -393.01686    326.14124    27165.919    1295.9559 
   22600   -397.66063    4.6568389   -393.00379    336.69975    26960.518    1295.9559 
   22700   -398.28399    5.2893756   -392.99461    382.43356    25108.432    1295.9559 
   22800   -397.57691    4.5801997   -392.99671    331.15857    27043.922    1295.9559 
   22900   -397.69579    4.7020925    -392.9937    339.97169    26738.912    1295.9559 
   23000   -398.18379    5.1737492   -393.01004    374.07351    25266.823    1295.9559 
   23100   -397.62286    4.5962565    -393.0266    332.31951    27173.344    1295.9559 
   23200   -397.85563     4.804746   -393.05089    347.39376    26413.394    1295.9559 
   23300   -397.87154    4.7812938   -393.09025    345.69812    25765.205    1295.9559 
   23400   -397.77614     4.647241    -393.1289     336.0058    26380.554    1295.9559 
   23500   -397.99613    4.8089845   -393.18714    347.70022    26087.568    1295.9559 
   23600   -398.05613    4.7982292    -393.2579    346.92258    25341.827    1295.9559 
   23700   -398.21093    4.8712187   -393.33971    352.19989    25292.717    1295.9559 
   23800   -397.92214    4.4793688   -393.44277    323.86827    25966.174    1295.9559 
   23900   -398.09014    4.5474356    -393.5427    328.78965    25255.703    1295.9559 
   24000   -398.35078    4.6929957   -393.65778    339.31397    24754.785    1295.9559 
   24100   -398.17952    4.4019019   -393.77762    318.26725    24670.367    1295.9559 
   24200   -398.36326     4.484218   -393.87904    324.21888    24376.811    1295.9559 
   24300   -398.13648     4.152538   -393.98394    300.23768    24849.332    1295.9559 
   24400   -398.56631    4.4987862   -394.06752    325.27219     23441.34    1295.9559 
   24500   -398.44832    4.3050654   -394.14325    311.26575    23775.451    1295.9559 
   24600   -398.08851    3.8865898   -394.20192    281.00904    24366.328    1295.9559 
   24700    -398.7464    4.5031434   -394.24325    325.58723    22886.068    1295.9559 
   24800   -398.37993    4.1000265   -394.27991    296.44099    23991.178    1295.9559 
   24900   -398.62872    4.3220265    -394.3067    312.49207    22613.167    1295.9559 
   25000   -398.17007    3.8532052   -394.31686    278.59526    24584.189    1295.9559 
   25100     -398.485    4.1662999    -394.3187    301.23269    23690.051    1295.9559 
   25200   -398.76415    4.4445352   -394.31962    321.34973    22697.302    1295.9559 
   25300   -398.34714    4.0336908   -394.31345    291.64476     23883.45    1295.9559 
   25400   -398.68051     4.381909    -394.2986    316.82171    22968.152    1295.9559 
   25500   -398.41396    4.1321175   -394.28185    298.76124    24165.175    1295.9559 
   25600   -398.28085    4.0269665   -394.25389    291.15859    24267.296    1295.9559 
   25700   -398.74187    4.5215375   -394.22033    326.91717     22983.62    1295.9559 
   25800   -398.10503    3.9191273   -394.18591    283.36157    25082.094    1295.9559 
   25900   -398.33868    4.1956959   -394.14299    303.35809    23862.108    1295.9559 
   26000   -398.38146    4.2783671   -394.10309    309.33541    24119.148    1295.9559 
   26100   -398.45986    4.4089237   -394.05094    318.77494    23743.828    1295.9559 
   26200   -398.24814     4.247974   -394.00017    307.13792    24305.425    1295.9559 
   26300   -398.30103    4.3543228   -393.94671    314.82717    24176.413    1295.9559 
   26400   -398.46512    4.5761706   -393.88895    330.86726    23822.706    1295.9559 
   26500   -398.19933    4.3711017   -393.82823    316.04032    24871.968    1295.9559 
   26600   -398.18167    4.4020487   -393.77963    318.27785    24376.549    1295.9559 
   26700   -398.30976     4.586668    -393.7231    331.62624    24149.965    1295.9559 
   26800    -397.8915    4.2194043   -393.67209    305.07227    26047.303    1295.9559 
   26900   -398.29292     4.668995   -393.62393    337.57866    24410.327    1295.9559 
   27000   -398.26502    4.6815682   -393.58345    338.48774    25020.059    1295.9559 
   27100   -398.17186    4.6267892   -393.54507    334.52709    25198.314    1295.9559 
   27200   -398.05304    4.5444535   -393.50859    328.57404    25006.231    1295.9559 
   27300   -397.87444     4.397335    -393.4771    317.93705      26111.3    1295.9559 
   27400   -398.35376    4.9043636    -393.4494    354.59634    24650.211    1295.9559 
   27500   -397.91305    4.4851616   -393.42789     324.2871    25986.942    1295.9559 
   27600   -397.71922    4.3097091   -393.40951     311.6015    26668.658    1295.9559 
   27700   -398.44129    5.0488348   -393.39245    365.04192    24212.481    1295.9559 
   27800   -397.61205    4.2291423   -393.38291    305.77634    27392.428    1295.9559 
   27900   -398.09428    4.7236829    -393.3706    341.53272    25478.332    1295.9559 
   28000   -398.25344    4.8864983   -393.36695    353.30463    24430.829    1295.9559 
   28100   -397.94464     4.583409   -393.36123    331.39061    26055.546    1295.9559 
   28200   -397.80715    4.4462915   -393.36085    321.47671    26144.139    1295.9559 
   28300   -398.53229    5.1706409   -393.36165    373.84878    23846.063    1295.9559 
   28400   -397.77309    4.4088308   -393.36426    318.76822    26429.061    1295.9559 
   28500   -397.88347    4.5151075   -393.36836    326.45226     25723.91    1295.9559 
   28600   -398.09849    4.7255358   -393.37296    341.66669    25171.879    1295.9559 
   28700   -398.07248    4.6951622   -393.37732    339.47061    25658.123    1295.9559 
   28800    -398.0995    4.7178135   -393.38169    341.10835    25197.442    1295.9559 
   28900   -398.12852    4.7361604   -393.39236    342.43487    24612.688    1295.9559 
   29000   -397.42239    4.0213104   -393.40108    290.74964    27407.962    1295.9559 
   29100   -398.49981    5.0892835   -393.41053    367.96646    23814.053    1295.9559 
   29200   -398.36682    4.9452391   -393.42158    357.55172    24315.662    1295.9559 
   29300   -397.65448    4.2239816    -393.4305    305.40321    26760.636    1295.9559 
   29400   -398.09413    4.6505766   -393.44355    336.24698    24930.094    1295.9559 
   29500   -398.21137    4.7580118   -393.45335    344.01478    24645.187    1295.9559 
   29600   -397.59428    4.1259508   -393.46833    298.31537        26754    1295.9559 
   29700   -398.55251    5.0684522   -393.48406     366.4603    23415.239    1295.9559 
   29800   -397.77186    4.2704078   -393.50145    308.75993    26052.922    1295.9559 
   29900   -398.15109    4.6340499   -393.51704    335.05206    24656.105    1295.9559 
   30000    -398.2718    4.7376818   -393.53412    342.54487    24290.636    1295.9559 
   30100   -398.05362    4.5032384   -393.55039    325.59409    25464.015    1295.9559 
   30200   -398.25751    4.6873136    -393.5702    338.90314    24452.218    1295.9559 
   30300   -398.12067    4.5299786   -393.59069    327.52747    24680.183    1295.9559 
   30400   -397.87245    4.2593117   -393.61314    307.95765    26036.221    1295.9559 
   30500   -398.36354    4.7248385    -393.6387    341.61627    24225.564    1295.9559 
   30600   -398.11979    4.4541854   -393.66561    322.04746    25100.771    1295.9559 
   30700   -398.13705    4.4380721   -393.69898    320.88243    25076.616    1295.9559 
   30800    -398.0295    4.2941245   -393.73538     310.4747    24942.865    1295.9559 
   30900   -398.56985    4.7851278   -393.78472    345.97533      24071.9    1295.9559 
   31000   -397.96497    4.1141043   -393.85087    297.45884    25445.986    1295.9559 
   31100   -398.62916    4.7136478   -393.91551    340.80716    23275.335    1295.9559 
   31200   -398.14159    4.1434017   -393.99819    299.57711    24857.018    1295.9559 
   31300   -398.67196    4.5804514   -394.09151    331.17677     23278.57    1295.9559 
   31400    -398.4371    4.2465959    -394.1905    307.03828    23932.592    1295.9559 
   31500   -398.38653    4.0963965   -394.29014    296.17853    23877.527    1295.9559 
   31600   -398.31423    3.9391375    -394.3751    284.80836    23776.113    1295.9559 
   31700    -398.8113    4.3530668   -394.45823    314.73636    22478.676    1295.9559 
   31800   -398.55344    4.0246274   -394.52881    290.98946    23383.692    1295.9559 
   31900   -398.55812    3.9655259    -394.5926    286.71629    23160.536    1295.9559 
   32000   -398.68839    4.0468091   -394.64158    292.59325    22335.912    1295.9559 
   32100   -398.67296    3.9964699   -394.67649    288.95362    22896.145    1295.9559 
   32200   -398.63154    3.9270658   -394.70447    283.93555    23073.218    1295.9559 
   32300   -399.00428    4.2852886   -394.71899    309.83584    21254.323    1295.9559 
   32400   -398.44887     3.724392   -394.72448    269.28178    23464.541    1295.9559 
   32500   -398.63336    3.9106272   -394.72273    282.74699    22812.293    1295.9559 
   32600     -398.819     4.111663   -394.70734    297.28233     22199.65    1295.9559 
   32700   -398.91775    4.2380748   -394.67967    306.42218    21930.819    1295.9559 
   32800   -398.42183    3.7784037   -394.64343    273.18695    23264.003    1295.9559 
   32900   -398.70177    4.1043829   -394.59738    296.75596    22416.532    1295.9559 
   33000    -398.1774    3.6340357   -394.54336    262.74882     24163.67    1295.9559 
   33100   -399.00967    4.5392206   -394.47045    328.19569    22044.844    1295.9559 
   33200   -398.50727     4.115946   -394.39133      297.592    23337.613    1295.9559 
   33300   -398.21255    3.9016089   -394.31094    282.09495    24067.808    1295.9559 
   33400   -398.51916    4.2963791   -394.22279    310.63771     23373.15    1295.9559 
   33500   -398.72632    4.6036558   -394.12266     332.8545    23272.479    1295.9559 
   33600   -398.02675    3.9935825   -394.03317    288.74485    25144.363    1295.9559 
   33700   -398.64751    4.6962598   -393.95125    339.54997    22810.656    1295.9559 
   33800   -397.96799    4.0897655   -393.87822    295.69909    25697.075    1295.9559 
   33900   -398.56808    4.7670332   -393.80105    344.66705    23839.015    1295.9559 
   34000   -398.28438    4.5388347   -393.74554    328.16779    24470.538    1295.9559 
   34100   -397.74467    4.0508962   -393.69378    292.88876    26451.603    1295.9559 
   34200   -398.34057    4.6917216   -393.64884    339.22185    24645.838    1295.9559 
   34300   -398.57375    4.9628846   -393.61087    358.82754    23890.031    1295.9559 
   34400   -397.65298    4.0760477   -393.57693    294.70727    27045.207    1295.9559 
   34500   -398.32033    4.7754975   -393.54483    345.27903    24534.745    1295.9559 
   34600   -397.95037    4.4300077   -393.52036    320.29936    25821.483    1295.9559 
   34700   -398.10738    4.6175883   -393.48979    333.86185    25386.195    1295.9559 
   34800   -398.08594    4.6187047   -393.46724    333.94256    25679.116    1295.9559 
   34900   -398.08942    4.6427159    -393.4467    335.67863    24958.474    1295.9559 
   35000   -397.95031    4.5198551   -393.43045    326.79552    25544.168    1295.9559 
   35100   -398.13748    4.7247101   -393.41277    341.60699     25255.67    1295.9559 
   35200   -398.11045    4.7159471    -393.3945    340.97341    25212.214    1295.9559 
   35300   -398.27461    4.8883763   -393.38623    353.44042    24363.447    1295.9559 
   35400   -397.44399    4.0713658   -393.37263    294.36875     27114.13    1295.9559 
   35500    -398.5701    5.2055839   -393.36452    376.37523    23862.515    1295.9559 
   35600   -397.97542    4.6184406   -393.35698    333.92347    26082.956    1295.9559 
   35700   -397.82198    4.4697283   -393.35225    323.17124    26088.864    1295.9559 
   35800   -398.03984    4.6911582   -393.34868    339.18111    25122.414    1295.9559 
   35900   -397.93686    4.5874878   -393.34937    331.68551    25951.864    1295.9559 
   36000   -398.16745    4.8213587   -393.34609    348.59489    25162.107    1295.9559 
   36100   -397.94847    4.5983026   -393.35017    332.46745    25846.405    1295.9559 
   36200   -398.08857    4.7340703   -393.35449    342.28375    25329.698    1295.9559 
   36300   -398.24397    4.8852956   -393.35868    353.21768    24773.986    1295.9559 
   36400   -397.74326    4.3710903   -393.37217     316.0395    26866.913    1295.9559 
   36500   -397.77654    4.3953625   -393.38118    317.79443    26466.206    1295.9559 
   36600   -398.56262    5.1650152   -393.39761    373.44202    24153.836    1295.9559 
   36700   -397.70258    4.2815134   -393.42106    309.56289    26514.358    1295.9559 
   36800   -398.24871    4.8038256   -393.44488    347.32722    24952.108    1295.9559 
   36900   -398.05994     4.583719   -393.47622    331.41302    25405.403    1295.9559 
   37000   -397.94681    4.4348686   -393.51194    320.65081    25719.282    1295.9559 
   37100   -398.43178    4.8762674   -393.55551    352.56492    24195.435    1295.9559 
   37200   -397.77349    4.1708548   -393.60263    301.56203    25916.513    1295.9559 
   37300   -398.36612    4.7180358   -393.64808    341.12443    24391.894    1295.9559 
   37400   -398.39476    4.6789653    -393.7158    338.29954    24332.959    1295.9559 
   37500   -397.89851    4.1239763   -393.77453    298.17261    25296.852    1295.9559 
   37600   -398.54728    4.6996526   -393.84762    339.79528    23778.564    1295.9559 
   37700   -398.12159    4.2029128   -393.91868    303.87989    24707.313    1295.9559 
   37800   -398.46189    4.4727404   -393.98915    323.38903    23815.301    1295.9559 
   37900   -398.63618    4.5657047   -394.07047    330.11055     23421.84    1295.9559 
   38000   -398.13861    4.0000541   -394.13856    289.21276     24169.28    1295.9559 
   38100   -398.65115    4.4440633   -394.20709     321.3156    22898.511    1295.9559 
   38200   -398.25095     3.983169   -394.26779    287.99193    23813.015    1295.9559 
   38300   -398.70579    4.3925358   -394.31325    317.59006    22575.998    1295.9559 
   38400   -398.36768    4.0073904   -394.36029    289.74319    23841.009    1295.9559 
   38500   -398.45732    4.0603282   -394.39699    293.57071    22981.554    1295.9559 
   38600   -398.69565    4.2690559    -394.4266    308.66218    22777.918    1295.9559 
   38700   -398.67227    4.2199297   -394.45234    305.11025    22914.375    1295.9559 
   38800   -398.52181    4.0553422   -394.46647    293.21021    22842.562    1295.9559 
   38900   -398.55677    4.0829928   -394.47378    295.20941     23158.68    1295.9559 
   39000    -398.6146    4.1442581   -394.47034    299.63903    22762.532    1295.9559 
   39100   -398.42251    3.9647023   -394.45781    286.65675    23504.976    1295.9559 
   39200   -398.82692    4.3888981   -394.43802    317.32704    22310.237    1295.9559 
   39300   -398.27271     3.866842   -394.40587    279.58123    23760.636    1295.9559 
   39400   -398.84459    4.4762191   -394.36837    323.64054    22455.901    1295.9559 
   39500   -398.21573    3.9007269   -394.31501    282.03118    24001.834    1295.9559 
   39600   -398.64135    4.3941501    -394.2472    317.70677    23004.192    1295.9559 
   39700     -398.597     4.433359   -394.16364    320.54166    23351.959    1295.9559 
   39800    -398.3315    4.2560864   -394.07541    307.72446    23600.163    1295.9559 
   39900   -398.32178    4.3504986   -393.97129    314.55068    24173.377    1295.9559 
   40000   -398.37997     4.520473   -393.85949     326.8402    24018.305    1295.9559 
   40100   -398.40741    4.6624676   -393.74494    337.10672    23727.655    1295.9559 
   40200   -397.86834    4.2320728   -393.63627    305.98823    25782.147    1295.9559 
   40300   -398.04399    4.5116223   -393.53236    326.20027    25221.286    1295.9559 
   40400   -398.10712    4.6658143    -393.4413     337.3487    25270.318    1295.9559 
   40500   -397.93824    4.5679649   -393.37027    330.27396    25646.359    1295.9559 
   40600   -397.79058    4.4777433   -393.31283    323.75074     25876.55    1295.9559 
   40700   -397.86273    4.5911072   -393.27162    331.94721    25854.503    1295.9559 
   40800   -398.35596    5.1217607    -393.2342    370.31463    23927.645    1295.9559 
   40900   -397.68628    4.4740455   -393.21223    323.48339    26564.877    1295.9559 
   41000   -398.01056    4.8123254   -393.19823    347.94177    25460.612    1295.9559 
   41100   -397.90823    4.7262243   -393.18201    341.71647     25387.38    1295.9559 
   41200   -397.71544    4.5431668   -393.17227    328.48101    26739.055    1295.9559 
   41300   -398.27041    5.1069669   -393.16344      369.245    24510.457    1295.9559 
   41400   -397.69941    4.5337051   -393.16571     327.7969    26416.539    1295.9559 
   41500   -397.72599    4.5528064   -393.17318    329.17797    26523.933    1295.9559 
   41600   -398.20965    5.0313039   -393.17835     363.7744    24672.761    1295.9559 
   41700     -397.928    4.7361378   -393.19186    342.43324    26103.409    1295.9559 
   41800   -397.93212    4.7270242    -393.2051    341.77431    25998.576    1295.9559 
   41900   -398.04752    4.8211877   -393.22633    348.58254     25295.65    1295.9559 
   42000   -397.90595    4.6555479    -393.2504    336.60641    26110.225    1295.9559 
   42100   -397.76709    4.4941734   -393.27292    324.93867    26209.344    1295.9559 
   42200   -398.30165    5.0049461    -393.2967    361.86867    24809.341    1295.9559 
   42300   -397.68499    4.3527585   -393.33223    314.71407    26658.615    1295.9559 
   42400   -397.98386    4.6228849   -393.36098     334.2448    25536.954    1295.9559 
   42500   -398.29788    4.8980852   -393.39979    354.14239    24960.432    1295.9559 
   42600    -398.0752    4.6373963   -393.43781    335.29401    25302.203    1295.9559 
   42700   -397.85735     4.376684   -393.48067    316.44393    26153.027    1295.9559 
   42800   -398.30562    4.7791235   -393.52649     345.5412     24731.12    1295.9559 
   42900   -398.25521    4.6833606   -393.57185    338.61733    24649.359    1295.9559 
   43000   -397.95988    4.3389272   -393.62095    313.71403    25650.909    1295.9559 
   43100   -398.28173      4.61088   -393.67085    333.37682    24482.361    1295.9559 
   43200   -398.21344    4.4916578   -393.72178    324.75679    24617.105    1295.9559 
   43300   -398.31578    4.5349622   -393.78081     327.8878    24466.622    1295.9559 
   43400   -397.97664    4.1435118   -393.83313    299.58507    24989.937    1295.9559 
   43500   -398.63233    4.7521404   -393.88019    343.59027    23555.126    1295.9559 
   43600   -398.19471    4.2574646   -393.93724    307.82411    24602.923    1295.9559 
   43700   -398.28958    4.2995814      -393.99    310.86925    23886.992    1295.9559 
   43800   -398.51012    4.4713134    -394.0388    323.28585    23802.827    1295.9559 
   43900   -398.03888    3.9499294   -394.08895    285.58863    24695.525    1295.9559 
   44000   -398.29641    4.1610395   -394.13537    300.85236    24051.911    1295.9559 
   44100   -398.72663    4.5472189   -394.17941    328.77398    22986.572    1295.9559 
   44200   -398.15056    3.9253848   -394.22518    283.81401    24533.477    1295.9559 
   44300   -398.83868    4.5692577   -394.26942    330.36744    22435.621    1295.9559 
   44400   -398.17793    3.8668787   -394.31105    279.58389     24122.81    1295.9559 
   44500   -398.49358    4.1471036   -394.34648    299.84476    23563.951    1295.9559 
   44600   -398.69873    4.3131619   -394.38556    311.85114    23006.802    1295.9559 
   44700   -398.42521    4.0076691   -394.41754    289.76334    23472.682    1295.9559 
   44800   -398.73265    4.2824428   -394.45021    309.63009    22877.208    1295.9559 
   44900   -398.61712    4.1361385   -394.48098    299.05196    23076.664    1295.9559 
   45000   -398.58689    4.0820302   -394.50486    295.13981    23110.727    1295.9559 
   45100   -398.60319    4.0722375   -394.53095    294.43178    23029.125    1295.9559 
   45200    -398.6839    4.1391083   -394.54479    299.26668    22679.119    1295.9559 
   45300    -398.5384    3.9807307   -394.55767    287.81564    23489.616    1295.9559 
   45400   -398.66258    4.1038595   -394.55872    296.71812    22955.951    1295.9559 
   45500   -398.85595    4.3017707   -394.55417    311.02753    22145.193    1295.9559 
   45600   -398.30893    3.7685519   -394.54038    272.47464    23994.778    1295.9559 
   45700   -398.63706    4.1253616    -394.5117    298.27277    22679.551    1295.9559 
   45800   -398.37636    3.9056853   -394.47067    282.38968    24012.021    1295.9559 
   45900   -398.69802    4.2895701   -394.40845     310.1454    22697.957    1295.9559 
   46000   -398.56985    4.2251322   -394.34472     305.4864    22913.266    1295.9559 
   46100   -398.29655    4.0341342   -394.26241    291.67682    24552.165    1295.9559 
   46200    -398.4088    4.2384578   -394.17034    306.44987    23508.602    1295.9559 
   46300   -398.72394    4.6566872   -394.06726    336.68878     22911.13    1295.9559 
   46400    -398.1062     4.138802    -393.9674    299.24454    25272.812    1295.9559 
   46500   -398.48433    4.6194853   -393.86484      333.999    23573.726    1295.9559 
   46600    -398.3578     4.588367   -393.76943    331.74908    24431.718    1295.9559 
   46700   -397.66536    3.9899942   -393.67537    288.48541    26780.591    1295.9559 
   46800   -398.46063    4.8695491   -393.59108    352.07917    24060.772    1295.9559 
   46900   -397.91355    4.3970745   -393.51647    317.91821    25844.766    1295.9559 
   47000   -398.19095    4.7446342   -393.44631    343.04754    25521.316    1295.9559 
   47100   -397.97422    4.5838185    -393.3904    331.42022    25833.027    1295.9559 
   47200   -397.74215    4.4029217   -393.33923    318.34098    26528.376    1295.9559 
   47300   -398.33432    5.0481812   -393.28614    364.99467     24851.59    1295.9559 
   47400   -397.84654    4.5996223   -393.24692    332.56287    26438.332    1295.9559 
   47500   -398.05829    4.8501931    -393.2081    350.67969    25696.469    1295.9559 
   47600   -397.67658    4.5006493   -393.17593     325.4069    27066.868    1295.9559 
   47700   -398.13439    4.9876036   -393.14679    360.61477    25866.563    1295.9559 
   47800   -397.78911    4.6671265   -393.12198    337.44357    26700.344    1295.9559 
   47900   -397.75508    4.6502434   -393.10484    336.22288    26981.508    1295.9559 
   48000   -398.08959    5.0021231   -393.08746    361.66456    26190.419    1295.9559 
   48100   -397.72928    4.6487099   -393.08057    336.11201    26839.599    1295.9559 
   48200   -397.97197    4.8969822   -393.07498    354.06264    26374.045    1295.9559 
   48300   -397.74362    4.6682442   -393.07538    337.52438    26903.649    1295.9559 
   48400   -397.67336    4.5859887   -393.08737    331.57712    27179.401    1295.9559 
   48500   -397.94572    4.8481579   -393.09756    350.53254    26507.422    1295.9559 
   48600   -397.83748    4.7222386   -393.11524    341.42829    26824.488    1295.9559 
   48700   -398.00334    4.8618348   -393.14151    351.52141     26270.92    1295.9559 
   48800   -398.19531    5.0252707   -393.17004    363.33818    25583.935    1295.9559 
   48900    -397.6926    4.4856914   -393.20691    324.32541    27307.819    1295.9559 
   49000   -398.10355    4.8583596   -393.24519    351.27014    26184.496    1295.9559 
   49100   -398.14419     4.848482   -393.29571    350.55597     25466.44    1295.9559 
   49200   -397.97026    4.6238987   -393.34636     334.3181    25999.731    1295.9559 
   49300   -398.01205    4.6006476   -393.41141      332.637    26040.331    1295.9559 
   49400   -397.93875    4.4568875   -393.48186    322.24282    25624.375    1295.9559 
   49500   -398.23127    4.6791913   -393.55208    338.31588    24752.404    1295.9559 
   49600   -397.81835    4.1876447   -393.63071    302.77598    26359.319    1295.9559 
   49700   -398.31887    4.6165332   -393.70233    333.78556    24275.699    1295.9559 
   49800   -398.49626        4.718   -393.77826    341.12183    23817.905    1295.9559 
   49900   -398.05958    4.1956283   -393.86396    303.35321    25352.063    1295.9559 
   50000   -398.16127    4.2264539   -393.93482    305.58196    24619.151    1295.9559 
   50100   -398.79323    4.7849369    -394.0083    345.96152      22540.6    1295.9559 
   50200   -397.94357    3.8710874   -394.07249    279.88818    25327.589    1295.9559 
   50300   -398.45181    4.3202171    -394.1316    312.36125    23737.373    1295.9559 
   50400   -398.78067    4.5994855   -394.18118    332.55298    22585.808    1295.9559 
   50500   -397.93233    3.7045378   -394.22779    267.84627    24809.979    1295.9559 
   50600   -398.68967     4.429771    -394.2599    320.28224    22821.823    1295.9559 
   50700   -398.40813    4.1210202   -394.28711    297.95888    23412.921    1295.9559 
   50800   -398.67908     4.377981   -394.30109    316.53771    22789.996    1295.9559 
   50900   -398.36221    4.0473663   -394.31484    292.63353    23748.294    1295.9559 
   51000   -398.52081    4.2002595   -394.32055    303.68805    22807.009    1295.9559 
   51100   -398.57415    4.2581929   -394.31596    307.87676     22764.15    1295.9559 
   51200   -398.43323    4.1281027   -394.30513    298.47096    23299.266    1295.9559 
   51300   -398.62705    4.3373572    -394.2897    313.60052    22698.425    1295.9559 
   51400    -398.3555    4.0859002    -394.2696    295.41963    23575.335    1295.9559 
   51500   -398.37368    4.1349588   -394.23872    298.96667    23465.486    1295.9559 
   51600   -398.52063    4.3206783   -394.19996     312.3946    23118.999    1295.9559 
   51700   -398.19999    4.0462694   -394.15372    292.55423    24330.789    1295.9559 
   51800   -398.47557    4.3762453   -394.09932    316.41221    23521.656    1295.9559 
   51900   -398.41358    4.3784857    -394.0351     316.5742    23488.468    1295.9559 
   52000   -398.09538     4.123382     -393.972    298.12964    24752.396    1295.9559 
   52100   -398.65028    4.7688339   -393.88145    344.79724    23225.092    1295.9559 
   52200   -398.17931    4.3829731   -393.79634    316.89865    24473.861    1295.9559 
   52300   -398.05418    4.3562665   -393.69792     314.9677    24899.381    1295.9559 
   52400   -398.05947    4.4578359   -393.60163    322.31139    24884.576    1295.9559 
   52500   -398.12552     4.623776   -393.50175    334.30923    25008.436    1295.9559 
   52600   -397.94549    4.5473708   -393.39812    328.78496    25967.484    1295.9559 
   52700   -397.89726     4.594871   -393.30238    332.21934    25940.369    1295.9559 
   52800   -397.94005     4.709392   -393.23066    340.49946    25761.847    1295.9559 
   52900   -398.04591    4.8797475   -393.16616    352.81654    25888.279    1295.9559 
   53000   -397.89634    4.7683184   -393.12803    344.75997    26352.497    1295.9559 
   53100   -398.11857    5.0212523   -393.09732    363.04765    25735.364    1295.9559 
   53200   -397.54957    4.4618859   -393.08769    322.60422    26981.909    1295.9559 
   53300   -397.82807    4.7510533   -393.07702    343.51166    26193.939    1295.9559 
   53400    -397.8109    4.7339978   -393.07691    342.27851     26508.28    1295.9559 
   53500    -398.2544    5.1759831   -393.07842    374.23502    25356.022    1295.9559 
   53600   -397.47714    4.3902814   -393.08686    317.42706     27219.76    1295.9559 
   53700   -398.06493    4.9692471   -393.09568    359.28756    25417.467    1295.9559 
   53800   -398.00693    4.8994138   -393.10751    354.23846    25737.261    1295.9559 
   53900   -397.62177    4.4923205   -393.12945    324.80471    27167.787    1295.9559 
   54000   -398.01116    4.8656482   -393.14551    351.79713    25635.574    1295.9559 
   54100   -397.95603     4.787887   -393.16815    346.17482    25506.074    1295.9559 
   54200   -397.65579    4.4587111   -393.19708    322.37467    27209.638    1295.9559 
   54300    -398.1801    4.9550476   -393.22505     358.2609     25113.61    1295.9559 
   54400   -397.93194    4.6737744   -393.25817    337.92423    25595.647    1295.9559 
   54500   -397.82544    4.5275554   -393.29788    327.35227    26586.726    1295.9559 
   54600    -398.0146    4.6769849   -393.33761    338.15636    25280.318    1295.9559 
   54700   -398.33005    4.9489801   -393.38107    357.82221    24685.509    1295.9559 
   54800   -397.86583     4.439136   -393.42669    320.95935    26576.939    1295.9559 
   54900    -398.4114    4.9370134   -393.47439    356.95699    23886.897    1295.9559 
   55000    -397.9066    4.3855154   -393.52109    317.08246    25930.164    1295.9559 
   55100   -398.23836    4.6637891   -393.57457    337.20227    24809.583    1295.9559 
   55200   -398.16107    4.5407407   -393.62033    328.30559    25008.382    1295.9559 
   55300   -397.91587    4.2470076   -393.66886    307.06805    25723.227    1295.9559 
   55400   -397.98856    4.2783233   -393.71023    309.33224    25078.784    1295.9559 
   55500   -398.52814     4.772668   -393.75547    345.07445    23957.788    1295.9559 
   55600   -397.92589    4.1248379   -393.80105     298.2349    25576.424    1295.9559 
   55700   -398.58141    4.7398548   -393.84155    342.70198    23266.198    1295.9559 
   55800   -398.09246    4.2116712   -393.88079    304.51314    25047.505    1295.9559 
   55900   -398.26629    4.3472516   -393.91904    314.31591    24337.875    1295.9559 
   56000   -398.51446    4.5631812   -393.95128     329.9281    23750.794    1295.9559 
   56100    -398.1723    4.1907206   -393.98158    302.99837    24841.587    1295.9559 
   56200   -398.07538    4.0640393   -394.01134    293.83903    24902.924    1295.9559 
   56300    -398.9122    4.8779828   -394.03422    352.68895    22531.026    1295.9559 
   56400   -397.83134     3.774313   -394.05703    272.89118    25644.949    1295.9559 
   56500   -398.78073    4.7108236   -394.06991    340.60297    22809.302    1295.9559 
   56600   -398.15711    4.0711331   -394.08598    294.35193    24708.596    1295.9559 
   56700     -398.191    4.0985254   -394.09248    296.33245    24606.599    1295.9559 
   56800   -398.70425    4.6103458    -394.0939     333.3382      23040.9    1295.9559 
   56900   -398.44325    4.3492043   -394.09405    314.45709    23717.326    1295.9559 
   57000   -398.30726    4.2226634    -394.0846    305.30791    24392.867    1295.9559 
   57100   -398.75243     4.684239   -394.06819    338.68084    22955.179    1295.9559 
   57200   -397.68992    3.6363544   -394.05357    262.91647    25952.005    1295.9559 
   57300   -398.83847    4.8197314   -394.01874    348.47724    22976.675    1295.9559 
   57400   -397.98625    4.0043153   -393.98193    289.52086    25229.017    1295.9559 
   57500   -398.48623    4.5555085   -393.93072    329.37334     24185.41    1295.9559 
   57600   -398.37524    4.5080331    -393.8672    325.94076    24067.277    1295.9559 
   57700   -397.96565    4.1671486    -393.7985    301.29406    25146.328    1295.9559 
   57800   -398.38905    4.6745691   -393.71448    337.98169    24194.243    1295.9559 
   57900   -398.26051    4.6451215   -393.61539    335.85256    24597.444    1295.9559 
   58000   -397.67172    4.1556285   -393.51609    300.46113    26345.975    1295.9559 
   58100   -398.20208    4.7954767    -393.4066    346.72357    24921.716    1295.9559 
   58200   -397.96433    4.6614978   -393.30283     337.0366    25481.516    1295.9559 
   58300   -398.06565    4.8705909   -393.19506    352.15449    25728.078    1295.9559 
   58400   -397.46759     4.357375   -393.11021    315.04785    27473.881    1295.9559 
   58500   -398.15901    5.1284373   -393.03057    370.79736    24923.528    1295.9559 
   58600   -397.59857    4.6362842   -392.96228     335.2136    27508.741    1295.9559 
   58700   -397.89728    4.9943145   -392.90297    361.09998    26413.641    1295.9559 
   58800   -397.73186    4.8710077   -392.86086    352.18463    26597.034    1295.9559 
   58900   -397.90874    5.0793623   -392.82938    367.24913     26251.05    1295.9559 
   59000   -397.46443    4.6554295     -392.809    336.59785    27615.997    1295.9559 
   59100   -397.68512    4.8875073   -392.79761    353.37759    26831.146    1295.9559 
   59200   -397.93038    5.1366278   -392.79375    371.38955    25766.376    1295.9559 
   59300   -397.30635     4.508034   -392.79832    325.94083    27985.362    1295.9559 
   59400   -398.16751    5.3613196   -392.80619    387.63527    25123.086    1295.9559 
   59500   -397.67664    4.8501848   -392.82645    350.67909    26372.507    1295.9559 
   59600   -397.76359    4.9134451   -392.85014    355.25295     26743.53    1295.9559 
   59700   -398.00944    5.1277561   -392.88168    370.74811    26104.655    1295.9559 
   59800   -397.32719    4.4051256   -392.92206    318.50032    27366.047    1295.9559 
   59900   -398.19983    5.2409407   -392.95889    378.93161    25205.312    1295.9559 
   60000   -397.81176        4.803   -393.00876    347.26753    26718.639    1295.9559 
   60100   -397.49579    4.4356672   -393.06012    320.70855     27200.55    1295.9559 
   60200   -398.32157    5.2086215   -393.11295    376.59486     24326.79    1295.9559 
   60300   -397.93738    4.7706871    -393.1667    344.93123    25888.255    1295.9559 
   60400   -397.76907    4.5394734   -393.22959    328.21397    26688.856    1295.9559 
   60500   -398.12497     4.840004   -393.28497      349.943    24699.266    1295.9559 
   60600   -397.99933    4.6613582   -393.33797    337.02651    25233.148    1295.9559 
   60700   -397.88585    4.4935341   -393.39232    324.89246    25929.566    1295.9559 
   60800   -398.27294    4.8275147   -393.44542    349.03999    24093.382    1295.9559 
   60900    -398.2559    4.7646049    -393.4913    344.49147    24694.006    1295.9559 
   61000   -398.18373    4.6418817   -393.54185    335.61831    25401.498    1295.9559 
   61100   -397.90849     4.321106   -393.58739    312.42552    24995.995    1295.9559 
   61200   -398.10757    4.4912454   -393.61633    324.72698    24624.796    1295.9559 
   61300   -398.15131     4.507079   -393.64423    325.87178    25096.013    1295.9559 
   61400   -398.32125    4.6513392   -393.66992    336.30211    23779.965    1295.9559 
   61500   -398.16056    4.4713563    -393.6892    323.28895    24339.657    1295.9559 
   61600   -397.80476    4.1007095   -393.70405    296.49037     25220.11    1295.9559 
   61700   -398.52202    4.8087551   -393.71327    347.68363    23572.149    1295.9559 
   61800   -398.36891    4.6460815   -393.72283    335.92197    24158.871    1295.9559 
   61900   -397.70908    3.9768449   -393.73224    287.53469    25732.273    1295.9559 
   62000   -398.60715    4.8732302   -393.73392    352.34532    23110.231    1295.9559 
   62100   -397.89079    4.1544345   -393.73636     300.3748    25336.466    1295.9559 
   62200   -398.63357    4.9026066   -393.73096     354.4693    23424.089    1295.9559 
   62300   -397.90534    4.1754634   -393.72988    301.89524    25507.292    1295.9559 
   62400   -398.21788    4.4908708   -393.72701    324.69989    24220.413    1295.9559 
   62500    -398.1714    4.4504188   -393.72098    321.77512    24916.444    1295.9559 
   62600   -398.23851    4.5230737   -393.71543    327.02823    24515.863    1295.9559 
   62700   -398.10477     4.393128   -393.71164    317.63287    24707.061    1295.9559 
   62800   -398.37263    4.6731788   -393.69945    337.88117    24196.535    1295.9559 
   62900   -397.66045    3.9676683   -393.69278    286.87119    26099.808    1295.9559 
   63000   -398.76494    5.0844497   -393.68049    367.61696    22936.085    1295.9559 
   63100   -397.83671    4.1657484   -393.67096    301.19282    25995.763    1295.9559 
   63200   -398.34498    4.6891001   -393.65588    339.03231    23831.082    1295.9559 
   63300   -397.92047    4.2765005   -393.64397    309.20044    25402.947    1295.9559 
   63400     -398.129    4.5046924   -393.62431    325.69922    24853.714    1295.9559 
   63500    -398.5077    4.8955152   -393.61218    353.95658    23990.967    1295.9559 
   63600   -398.20378    4.6066276   -393.59715    333.06937    24676.479    1295.9559 
   63700   -397.47993    3.8904842   -393.58945    281.29061    26491.092    1295.9559 
   63800   -398.87845    5.3130075   -393.56544    384.14219    23049.571    1295.9559 
   63900   -397.70714     4.158859   -393.54828     300.6947    26260.115    1295.9559 
   64000   -398.39268    4.8622262   -393.53046    351.54971    24061.754    1295.9559 
   64100   -398.03757    4.5206277   -393.51694    326.85138    25220.564    1295.9559 
   64200   -397.93236    4.4345101   -393.49785    320.62489     25395.14    1295.9559 
   64300   -398.04709    4.5689716   -393.47812    330.34675    25456.135    1295.9559 
   64400   -398.35633    4.9031356    -393.4532    354.50755    24034.655    1295.9559 
   64500    -397.7861    4.3526106   -393.43349    314.70338    26197.381    1295.9559 
   64600   -398.18055    4.7712291   -393.40932    344.97042    24859.717    1295.9559 
   64700   -397.65333    4.2697296    -393.3836    308.71089    26059.762    1295.9559 
   64800   -398.78229    5.4335163   -393.34878    392.85524    23551.857    1295.9559 
   64900   -397.18611    3.8661733   -393.31994    279.53288    27711.627    1295.9559 
   65000   -398.49499    5.2156198   -393.27937    377.10085    23521.366    1295.9559 
   65100   -397.67067    4.4426685     -393.228    321.21476    26831.109    1295.9559 
   65200   -397.94575    4.7743777   -393.17137    345.19807    25582.088    1295.9559 
   65300   -397.66495     4.551459   -393.11349    329.08055    26318.587    1295.9559 
   65400   -398.05603    5.0158151   -393.04021    362.65453    25409.598    1295.9559 
   65500   -397.51779    4.5557893     -392.962    329.39364    27040.099    1295.9559 
   65600   -398.16808      5.28966   -392.87842    382.45412    25337.973    1295.9559 
   65700    -397.5212     4.731579   -392.78962    342.10363    26897.534    1295.9559 
   65800   -397.82333     5.112527    -392.7108    369.64701    26204.599    1295.9559 
   65900   -397.48736    4.8606445   -392.62671    351.43535    27403.254    1295.9559 
   66000   -397.54912     4.993606   -392.55551    361.04876    26643.826    1295.9559 
   66100   -397.78612    5.2966552   -392.48946    382.95988    26734.755    1295.9559 
   66200   -397.53402    5.1036106   -392.43041    369.00234    27444.368    1295.9559 
   66300   -397.33074     4.942537   -392.38821    357.35636    27396.893    1295.9559 
   66400   -397.93803    5.5856067   -392.35242    403.85172    26394.144    1295.9559 
   66500   -396.99235    4.6554841   -392.33687     336.6018    29198.027    1295.9559 
   66600   -397.98492     5.653157   -392.33176    408.73575    25943.144    1295.9559 
   66700   -397.07263    4.7341375   -392.33849    342.28862    28909.241    1295.9559 
   66800   -397.35477    5.0010721    -392.3537    361.58857    28071.577    1295.9559 
   66900     -397.789     5.398446   -392.39055    390.31959    26779.312    1295.9559 
   67000   -397.55756    5.1183949   -392.43917    370.07127    27769.792    1295.9559 
   67100   -397.53518    5.0259822    -392.5092    363.38963    27594.342    1295.9559 
   67200   -397.43904    4.8473897   -392.59165      350.477     27555.59    1295.9559 
   67300   -397.64632    4.9571007   -392.68922    358.40934    26756.566    1295.9559 
   67400   -397.73506    4.9413021   -392.79376    357.26707    26657.235    1295.9559 
   67500   -397.80543    4.9007546   -392.90468     354.3354    26534.223    1295.9559 
   67600   -397.80838    4.7890298   -393.01935    346.25745    25943.915    1295.9559 
   67700   -397.82658    4.6989944   -393.12758    339.74769    25980.739    1295.9559 
   67800   -397.98059     4.756441   -393.22415    343.90121    25328.372    1295.9559 
   67900   -398.21512    4.8977136   -393.31741    354.11553    24652.336    1295.9559 
   68000   -397.72105    4.3251222   -393.39593     312.7159    26521.936    1295.9559 
   68100   -397.84376     4.377007   -393.46675    316.46729    25160.271    1295.9559 
   68200   -398.43893    4.9259834   -393.51294     356.1595    23523.113    1295.9559 
   68300   -398.02736    4.4650167   -393.56234    322.83058    25362.997    1295.9559 
   68400   -398.06431    4.4623672   -393.60194    322.63902    25180.132    1295.9559 
   68500   -398.32183    4.6880471   -393.63378    338.95618    24049.612    1295.9559 
   68600   -397.95075    4.2880716   -393.66268    310.03706    25198.551    1295.9559 
   68700   -398.25571    4.5683227   -393.68739    330.29983    24733.318    1295.9559 
   68800   -398.25906    4.5505988   -393.70846    329.01836    24329.788    1295.9559 
   68900   -398.09094    4.3662505   -393.72469    315.68957    25067.418    1295.9559 
   69000   -398.10486    4.3657025   -393.73916    315.64995    25065.561    1295.9559 
   69100   -398.55101    4.8007141    -393.7503    347.10225    23382.959    1295.9559 
   69200   -398.25578    4.4955474   -393.76023    325.03802    24817.653    1295.9559 
   69300   -398.33257    4.5662523   -393.76632    330.15014     24193.76    1295.9559 
   69400   -397.96824    4.1959141   -393.77233    303.37387    25079.357    1295.9559 
   69500   -398.27768    4.5040838   -393.77359    325.65522    24334.509    1295.9559 
   69600   -398.29672    4.5252802   -393.77144    327.18777    24287.408    1295.9559 
   69700   -398.09736    4.3254373   -393.77192    312.73868     24831.96    1295.9559 
   69800   -398.37357    4.6094338   -393.76414    333.27226    23964.779    1295.9559 
   69900   -397.96363    4.2003382   -393.76329    303.69374    24926.091    1295.9559 
   70000   -398.03407    4.2782997   -393.75577    309.33053    24840.146    1295.9559 
   70100   -398.54769    4.8104273   -393.73726    347.80454    23584.344    1295.9559 
   70200   -397.89723    4.1747547   -393.72247      301.844    25297.729    1295.9559 
   70300   -398.59569    4.8938926    -393.7018    353.83926    23311.042    1295.9559 
   70400   -397.68412    4.0004626   -393.68366    289.24229    26076.908    1295.9559 
   70500   -398.36046    4.7029595    -393.6575    340.03438    24641.082    1295.9559 
   70600   -398.37861    4.7529897   -393.62562    343.65167    23979.609    1295.9559 
   70700   -397.73939    4.1448984   -393.59449    299.68532    25702.117    1295.9559 
   70800    -398.1767     4.625449   -393.55125    334.43019    25068.804    1295.9559 
   70900    -398.0161    4.5134634   -393.50263    326.33339    25250.527    1295.9559 
   71000    -398.2567     4.805841   -393.45086    347.47293    24854.091    1295.9559 
   71100   -398.19385    4.8098937   -393.38396    347.76596    24955.745    1295.9559 
   71200   -397.81188    4.4911526   -393.32073    324.72027    26024.237    1295.9559 
   71300   -398.36212    5.1178468   -393.24428    370.03164    24918.731    1295.9559 
   71400   -397.39084    4.2267579   -393.16408    305.60395    27798.374    1295.9559 
   71500   -398.53161    5.4587312   -393.07288    394.67834    24728.658    1295.9559 
   71600   -397.55578    4.5678176   -392.98796    330.26331    27159.052    1295.9559 
   71700   -397.46205    4.5614164   -392.90063     329.8005    28202.283    1295.9559 
   71800    -398.2269    5.4210507   -392.80585    391.95396    25887.154    1295.9559 
   71900   -397.46805    4.7405426   -392.72751    342.75172    27702.804    1295.9559 
   72000   -397.45297    4.7977881   -392.65518    346.89069    28271.707    1295.9559 
   72100   -397.92691    5.3364876   -392.59042    385.83986    26548.439    1295.9559 
   72200   -397.35541    4.8209214   -392.53449    348.56328    28636.725    1295.9559 
   72300   -397.90979     5.421855   -392.48793    392.01211    27089.398    1295.9559 
   72400   -397.33698    4.8801604   -392.45682    352.84639    27993.135    1295.9559 
   72500   -397.44549    5.0094054   -392.43608    362.19109    28092.016    1295.9559 
   72600   -397.91783    5.4910965   -392.42673    397.01842    26612.473    1295.9559 
   72700    -397.8371    5.4083999    -392.4287    391.03928    27038.907    1295.9559 
   72800   -397.15704    4.7109384    -392.4461    340.61126    28709.076    1295.9559 
   72900   -397.73257     5.253576     -392.479    379.84517    26718.259    1295.9559 
   73000   -397.37056    4.8445221   -392.52604    350.26966     28123.64    1295.9559 
   73100   -397.82951    5.2462478   -392.58326    379.31532    26887.628    1295.9559 
   73200   -397.71627    5.0508725   -392.66539    365.18925    27177.774    1295.9559 
   73300   -397.43305    4.6658409   -392.76721    337.35062    27241.305    1295.9559 
   73400   -397.88632    5.0169865   -392.86934    362.73922    26140.422    1295.9559 
   73500   -397.89493    4.8882572   -393.00667    353.43181    26459.634    1295.9559 
   73600   -397.77956    4.6279839   -393.15157    334.61348    26611.198    1295.9559 
   73700   -398.05338      4.77345   -393.27993    345.13099    25036.349    1295.9559 
   73800   -397.74177    4.3347921   -393.40698    313.41506    26011.713    1295.9559 
   73900   -398.26464    4.7523213   -393.51231    343.60334    24753.273    1295.9559 
   74000   -398.36635    4.7608077   -393.60554    344.21693    24260.231    1295.9559 
   74100   -397.76842     4.094109   -393.67431    296.01314      25940.5    1295.9559 
   74200   -398.39702    4.6758871   -393.72114    338.07698      23891.4    1295.9559 
   74300   -398.10962     4.348245   -393.76137    314.38773    24724.853    1295.9559 
   74400   -398.29796     4.506614   -393.79134    325.83816    24474.839    1295.9559 
   74500   -398.24323    4.4290795   -393.81415    320.23225    24191.293    1295.9559 
   74600   -398.17197    4.3443854   -393.82759    314.10868    24603.366    1295.9559 
   74700   -398.25122    4.4143915   -393.83683    319.17027    24062.936    1295.9559 
   74800   -398.31282    4.4705753   -393.84224    323.23248    24410.853    1295.9559 
   74900   -398.02948    4.1857377   -393.84374    302.63809    25155.994    1295.9559 
   75000   -398.30817    4.4637513   -393.84442    322.73909    23714.203    1295.9559 
   75100   -398.36825    4.5302263   -393.83803    327.54538    24099.718    1295.9559 
   75200    -398.1438    4.3084855   -393.83532    311.51303    24833.954    1295.9559 
   75300     -398.332    4.5039532   -393.82804    325.64578    24129.467    1295.9559 
   75400   -398.19312    4.3770829   -393.81604    316.47277    24239.629    1295.9559 
   75500   -398.29368    4.4922368   -393.80144    324.79866    24000.154    1295.9559 
   75600   -397.99653    4.2120585   -393.78447    304.54115     25223.66    1295.9559 
   75700   -398.33352    4.5724952   -393.76102    330.60152    24285.535    1295.9559 
   75800   -398.52178     4.780375    -393.7414    345.63169    23643.898    1295.9559 
   75900   -397.79439    4.0747405   -393.71965    294.61275    25686.691    1295.9559 
   76000   -398.26779    4.5832937   -393.68449    331.38227    24342.353    1295.9559 
   76100   -398.30465    4.6530005   -393.65164    336.42223    24172.175    1295.9559 
   76200   -398.02885    4.4107932   -393.61805    318.91011    25195.714    1295.9559 
   76300   -398.04786    4.4692057   -393.57866    323.13346    24763.753    1295.9559 
   76400   -398.08702    4.5485367   -393.53848    328.86927    24837.077    1295.9559 
   76500   -398.17412    4.6833763   -393.49074    338.61847    25014.851    1295.9559 
   76600   -398.00898    4.5651642   -393.44382    330.07147     25225.09    1295.9559 
   76700   -397.82912    4.4268297   -393.40229    320.06958    25776.627    1295.9559 
   76800   -398.55146    5.1991656   -393.35229    375.91118    23625.345    1295.9559 
   76900   -397.57487    4.2688023   -393.30606    308.64385    26493.699    1295.9559 
   77000   -398.25532    4.9999015   -393.25542    361.50394    24429.177    1295.9559 
   77100   -397.79435    4.5897013   -393.20465    331.84556    26103.434    1295.9559 
   77200   -397.87572    4.7197797   -393.15594    341.25051    26000.474    1295.9559 
   77300   -397.72044    4.6144779   -393.10596    333.63696    26428.103    1295.9559 
   77400   -397.96188    4.9082442   -393.05364    354.87691    25465.372    1295.9559 
   77500    -397.7122    4.7117475   -393.00045    340.66977    26694.623    1295.9559 
   77600   -397.88794    4.9377974   -392.95014    357.01367    26204.305    1295.9559 
   77700   -397.41474     4.498622   -392.91612    325.26032    26677.046    1295.9559 
   77800   -398.17264     5.308389   -392.86425    383.80827    26034.924    1295.9559 
   77900   -397.67917    4.8536924   -392.82548    350.93269    26656.858    1295.9559 
   78000   -397.74139    4.9435832   -392.79781      357.432    25810.306    1295.9559 
   78100   -397.59931    4.8348613   -392.76445    349.57116     27446.37    1295.9559 
   78200   -397.57815    4.8356994   -392.74245    349.63176    27090.234    1295.9559 
   78300   -398.28553    5.5661995   -392.71933    402.44853    24794.999    1295.9559 
   78400   -397.31853    4.6044657   -392.71406    332.91306    27721.847    1295.9559 
   78500   -397.54345    4.8348867   -392.70856      349.573    26967.661    1295.9559 
   78600   -397.95452    5.2443165    -392.7102    379.17568    26241.863    1295.9559 
   78700   -397.10592    4.3806783   -392.72524    316.73273    28209.635    1295.9559 
   78800   -397.85664    5.1110012   -392.74563    369.53669    26271.734    1295.9559 
   78900   -398.13205    5.3426837   -392.78937    386.28785    25541.739    1295.9559 
   79000   -397.33106    4.4878439   -392.84322    324.48104     28137.57    1295.9559 
   79100   -398.16744    5.2511528   -392.91629    379.66996    25800.174    1295.9559 
   79200   -397.87953    4.8687335    -393.0108     352.0202    25885.529    1295.9559 
   79300   -397.56204     4.455102   -393.10694    322.11373    27255.586    1295.9559 
   79400   -397.97671    4.7513371   -393.22538    343.53218     26135.76    1295.9559 
   79500   -397.85174    4.5083276   -393.34341    325.96205    25967.459    1295.9559 
   79600   -398.53559    5.0791448   -393.45644     367.2334    24437.368    1295.9559 
   79700   -398.00013    4.4289594   -393.57117    320.22356     25212.68    1295.9559 
   79800   -398.06237    4.4036196   -393.65875    318.39144    25369.881    1295.9559 
   79900   -398.16883    4.4174723   -393.75136    319.39302    25319.193    1295.9559 
   80000   -398.40777    4.5813881   -393.82638     331.2445    24107.788    1295.9559 
   80100   -398.18989    4.3028629   -393.88703    311.10651    25017.664    1295.9559 
   80200   -398.09854    4.1567861   -393.94175    300.54483    25013.076    1295.9559 
   80300   -398.54558    4.5621456   -393.98344    329.85322    23699.862    1295.9559 
   80400   -398.20793    4.1862094   -394.02172     302.6722    24915.641    1295.9559 
   80500   -398.22388    4.1739221   -394.04996     301.7838    24185.022    1295.9559 
   80600   -398.87595    4.8118115   -394.06414    347.90461     22942.63    1295.9559 
   80700   -397.91133    3.8220988   -394.08924     276.3462      25454.8    1295.9559 
   80800   -398.57065    4.4741848   -394.09647    323.49346     23286.87    1295.9559 
   80900   -398.47362    4.3688959   -394.10472    315.88084    24071.535    1295.9559 
   81000   -398.34021    4.2355631   -394.10464    306.24058     24358.78    1295.9559 
   81100   -398.42145    4.3220877   -394.09936     312.4965    23706.505    1295.9559 
   81200   -398.43844    4.3471322   -394.09131    314.30727    23725.309    1295.9559 
   81300   -398.30007    4.2259069   -394.07416    305.54241     24861.85    1295.9559 
   81400   -398.27365    4.2198139   -394.05384    305.10188    24527.511    1295.9559 
   81500   -398.40869    4.3801495   -394.02854     316.6945    23766.141    1295.9559 
   81600   -398.24821    4.2545221   -393.99368    307.61136    24900.667    1295.9559 
   81700   -398.32572    4.3701341   -393.95559    315.97036    24312.483    1295.9559 
   81800   -398.57304    4.6657384    -393.9073    337.34321    23552.367    1295.9559 
   81900   -398.04364    4.1831246   -393.86051    302.44916     25298.91    1295.9559 
   82000   -398.52374    4.7202139   -393.80352    341.28191    23976.893    1295.9559 
   82100    -397.8493    4.1113374   -393.73796    297.25879    25792.982    1295.9559 
   82200   -398.29651    4.6238884   -393.67263    334.31736    24343.354    1295.9559 
   82300   -398.61456    5.0210434   -393.59351    363.03254    23990.586    1295.9559 
   82400   -397.61391    4.0931424   -393.52077    295.94325    26803.463    1295.9559 
   82500   -398.02787    4.5831927   -393.44468    331.37497    25386.559    1295.9559 
   82600   -398.28696    4.9226914   -393.36427    355.92148    25149.313    1295.9559 
   82700   -397.45946    4.1697047   -393.28975    301.47887    27332.739    1295.9559 
   82800   -398.59056    5.3741382   -393.21642    388.56208    24031.584    1295.9559 
   82900   -397.28604    4.1357732   -393.15027    299.02555    28258.656    1295.9559 
   83000   -398.16524     5.075935    -393.0893    367.00133    25976.998    1295.9559 
   83100   -398.36793    5.3296661   -393.03826    385.34665    24349.771    1295.9559 
   83200   -397.09184    4.0918303   -393.00001    295.84838    28854.308    1295.9559 
   83300   -398.11077    5.1522261   -392.95855    372.51734    26399.655    1295.9559 
   83400   -398.01681     5.083833   -392.93297    367.57237    25511.937    1295.9559 
   83500   -397.77008    4.8566897   -392.91339    351.14941    27109.964    1295.9559 
   83600   -397.46137     4.560892   -392.90047    329.76258    27639.315    1295.9559 
   83700   -397.71193    4.8175741   -392.89436    348.32126    26761.332    1295.9559 
   83800   -398.03951    5.1447174   -392.89479    371.97445    26150.383    1295.9559 
   83900   -397.58288    4.6808415   -392.90204     338.4352    27418.893    1295.9559 
   84000   -397.98504    5.0691772   -392.91586    366.51273    26312.282    1295.9559 
   84100   -397.68918    4.7491843   -392.93999    343.37653    26818.873    1295.9559 
   84200   -397.80809     4.847736   -392.96035    350.50204    26874.687    1295.9559 
   84300   -397.87744    4.8919754   -392.98546    353.70064    26961.232    1295.9559 
   84400   -398.01833    4.9998509   -393.01848    361.50028    25916.523    1295.9559 
   84500    -397.5415    4.4940517   -393.04745    324.92988    27437.959    1295.9559 
   84600   -398.02548    4.9538068   -393.07167    358.17119    26415.135    1295.9559 
   84700    -397.9511    4.8461687   -393.10493    350.38872     26514.98    1295.9559 
   84800   -397.86565     4.731704   -393.13395    342.11266    26617.034    1295.9559 
   84900   -397.80861    4.6445347   -393.16407    335.81014    26819.473    1295.9559 
   85000   -397.94109    4.7514587   -393.18963    343.54098    26197.755    1295.9559 
   85100   -398.04828    4.8318457   -393.21644    349.35313    26016.545    1295.9559 
   85200   -398.05997    4.8241089   -393.23586    348.79375    25484.829    1295.9559 
   85300    -397.9774    4.7153308   -393.26207    340.92885    26299.584    1295.9559 
   85400    -397.7843    4.5000266   -393.28427    325.36188    26513.233    1295.9559 
   85500   -397.90104    4.5992675   -393.30178    332.53721     25902.75    1295.9559 
   85600   -398.38753    5.0649618   -393.32257    366.20794    25155.197    1295.9559 
   85700   -397.95392    4.6075606   -393.34635    333.13682    25987.689    1295.9559 
   85800   -397.95426    4.5877286   -393.36653    331.70293    25984.946    1295.9559 
   85900   -397.98847    4.5999658    -393.3885     332.5877    26167.232    1295.9559 
   86000   -397.94775    4.5388386   -393.40892    328.16807    25866.558    1295.9559 
   86100   -398.41104    4.9773969   -393.43364    359.87681    24663.899    1295.9559 
   86200   -397.59114    4.1329702   -393.45817    298.82289    26445.186    1295.9559 
   86300   -397.98547    4.5089991   -393.47647    326.01061     25689.04    1295.9559 
   86400   -398.19355    4.6948498   -393.49871    339.44803    25190.337    1295.9559 
   86500   -397.98214    4.4618038   -393.52034    322.59828    25516.281    1295.9559 
   86600   -398.32184     4.780726   -393.54112    345.65707    24931.022    1295.9559 
   86700   -397.98119    4.4187761   -393.56242    319.48728     25513.32    1295.9559 
   86800   -398.09301    4.5059241   -393.58709    325.78828    24918.248    1295.9559 
   86900   -398.22326    4.6092407   -393.61402     333.2583     24929.45    1295.9559 
   87000   -398.28882    4.6511485   -393.63767    336.28833    24481.581    1295.9559 
   87100   -398.04111    4.3808723   -393.66024    316.74676    24935.566    1295.9559 
   87200   -398.29853     4.615768   -393.68276    333.73024    24064.205    1295.9559 
   87300   -397.90851    4.2059177   -393.70259    304.09715     25699.14    1295.9559 
   87400   -398.56975    4.8451703   -393.72458    350.31653    23724.542    1295.9559 
   87500   -398.16006    4.4131651    -393.7469     319.0816    24248.837    1295.9559 
   87600   -397.94245     4.171918   -393.77054     301.6389    25278.528    1295.9559 
   87700   -398.28175    4.4949781   -393.78677    324.99686    24600.391    1295.9559 
   87800   -398.23957    4.4283626    -393.8112    320.18041    24247.074    1295.9559 
   87900   -398.32249     4.489476   -393.83301    324.59905    24569.636    1295.9559 
   88000   -397.96932     4.114443   -393.85488    297.48333    25433.501    1295.9559 
   88100   -398.53707    4.6593265   -393.87775    336.87961    23760.117    1295.9559 
   88200   -398.41229     4.509608   -393.90268    326.05464    24259.128    1295.9559 
   88300   -398.21561    4.2900014   -393.92561    310.17659    24713.372    1295.9559 
   88400   -398.50801    4.5599713   -393.94804    329.69601    23964.583    1295.9559 
   88500    -398.1385    4.1613685   -393.97713    300.87615    24873.803    1295.9559 
   88600   -398.29611    4.2931268   -394.00299    310.40256    24585.975    1295.9559 
   88700   -398.53031     4.499473   -394.03083    325.32185    23752.227    1295.9559 
   88800   -398.11944    4.0646188   -394.05482    293.88093    24854.131    1295.9559 
   88900   -398.55565    4.4776586   -394.07799    323.74462     23678.06    1295.9559 
   89000   -398.29478    4.1933671   -394.10142    303.18971    24327.484    1295.9559 
   89100   -398.31021    4.1928379   -394.11737    303.15145    24494.146    1295.9559 
   89200   -398.58527    4.4527977   -394.13247    321.94712    23625.242    1295.9559 
   89300    -398.4984    4.3536305   -394.14477    314.77712    23620.113    1295.9559 
   89400   -398.20632    4.0548769   -394.15144    293.17657    24766.914    1295.9559 
   89500   -398.51952    4.3662077   -394.15332    315.68648    23810.543    1295.9559 
   89600   -398.60248    4.4508388   -394.15164    321.80549    23028.514    1295.9559 
   89700   -398.00783    3.8633191   -394.14451    279.32652    24999.856    1295.9559 
   89800   -398.58879    4.4637338   -394.12505    322.73782     23108.31    1295.9559 
   89900   -398.52999    4.4317857   -394.09821    320.42791    23518.599    1295.9559 
   90000   -398.24436    4.1737765   -394.07059    301.77328    24441.074    1295.9559 
   90100   -398.24648    4.2169919   -394.02948    304.89784    24026.515    1295.9559 
   90200    -398.3228    4.3391697   -393.98363    313.73157     24153.82    1295.9559 
   90300   -398.23059    4.3049303   -393.92566    311.25598    24457.361    1295.9559 
   90400   -398.24802    4.3814653   -393.86655    316.78963    24493.848    1295.9559 
   90500   -398.39758    4.5994825    -393.7981    332.55276    24170.283    1295.9559 
   90600   -398.00895    4.2816135   -393.72734    309.57013    24731.393    1295.9559 
   90700   -398.14991     4.497087   -393.65283    325.14934    24908.071    1295.9559 
   90800   -397.93216    4.3636179   -393.56854    315.49923    25560.528    1295.9559 
   90900   -398.47262    4.9844206    -393.4882    360.38463    23925.472    1295.9559 
   91000   -398.03252    4.6209128   -393.41161    334.10221    25287.218    1295.9559 
   91100   -397.54972    4.2051659   -393.34456    304.04279    26148.054    1295.9559 
   91200   -398.21519    4.9446192   -393.27057    357.50691    25091.652    1295.9559 
   91300   -398.00856    4.8046543   -393.20391    347.38714    25368.891    1295.9559 
   91400   -397.93935     4.789353      -393.15    346.28082    25674.434    1295.9559 
   91500    -397.6185    4.5177917   -393.10071    326.64633    27075.177    1295.9559 
   91600   -398.13036    5.0717817   -393.05858    366.70104    25098.988    1295.9559 
   91700    -397.9755    4.9585459   -393.01696    358.51383    26049.495    1295.9559 
   91800   -397.61006    4.6213567   -392.98871    334.13431    26663.804    1295.9559 
   91900   -397.97728     5.017433   -392.95985     362.7715    25974.178    1295.9559 
   92000   -397.59085    4.6482108   -392.94264    336.07592    27024.289    1295.9559 
   92100   -397.82939    4.9015321   -392.92786    354.39161    26249.019    1295.9559 
   92200   -398.08127    5.1611434   -392.92013    373.16208    26046.276    1295.9559 
   92300    -397.5163    4.5934629   -392.92284    332.11753    27698.185    1295.9559 
   92400   -397.60945    4.6814239   -392.92803     338.4773    26895.825    1295.9559 
   92500   -397.98069    5.0400559   -392.94064    364.40719    26301.559    1295.9559 
   92600   -397.72438    4.7644946   -392.95988     344.4835    27347.545    1295.9559 
   92700   -398.07159    5.0820959    -392.9895    367.44678    25835.319    1295.9559 
   92800   -397.64934    4.6253566   -393.02398    334.42352     27527.64    1295.9559 
   92900   -397.51576    4.4491404   -393.06662    321.68269    27630.683    1295.9559 
   93000   -398.36091    5.2466258   -393.11429    379.34265    24884.978    1295.9559 
   93100     -397.917    4.7389732   -393.17802    342.63825    26139.466    1295.9559 
   93200   -397.52179    4.2820163   -393.23978    309.59925    27378.693    1295.9559 
   93300   -398.36837    5.0526144   -393.31576    365.31519    24787.286    1295.9559 
   93400   -397.85279    4.4493163   -393.40347    321.69541    25660.326    1295.9559 
   93500   -398.07961    4.5896361   -393.48998    331.84084    25405.196    1295.9559 
   93600   -398.25261    4.6610925   -393.59152     337.0073    24983.718    1295.9559 
   93700   -398.11624    4.4294827   -393.68676     320.2614     24817.84    1295.9559 
   93800   -398.48613    4.6985568   -393.78757    339.71605    24149.751    1295.9559 
   93900   -397.73831    3.8534039   -393.88491    278.60962    25918.642    1295.9559 
   94000   -398.76213    4.7963268   -393.96581    346.78504    23281.169    1295.9559 
   94100   -398.18561    4.1328868   -394.05272    298.81686    24459.067    1295.9559 
   94200     -398.237    4.1310644   -394.10594     298.6851    24330.635    1295.9559 
   94300   -398.75632    4.5949969   -394.16133    332.22844    23043.886    1295.9559 
   94400    -398.1606    3.9593256   -394.20127      286.268    24113.634    1295.9559 
   94500   -398.91498    4.6872314   -394.22775     338.8972    22419.233    1295.9559 
   94600   -398.19487    3.9476973   -394.24717    285.42724    24438.494    1295.9559 
   94700   -398.61853    4.3667754   -394.25176    315.72752    22763.961    1295.9559 
   94800   -398.57632     4.320959   -394.25536    312.41489    23003.503    1295.9559 
   94900   -398.10397    3.8566945   -394.24727    278.84754    24702.431    1295.9559 
   95000    -398.9732    4.7375449   -394.23566    342.53497    21720.318    1295.9559 
   95100   -398.19475    3.9695879   -394.22516    287.00999    24074.927    1295.9559 
   95200   -398.39372    4.1889154    -394.2048    302.86785    23620.317    1295.9559 
   95300   -398.39868    4.2152726   -394.18341    304.77354    23696.282    1295.9559 
   95400   -398.57555    4.4167416   -394.15881    319.34019    22848.359    1295.9559 
   95500   -398.25351    4.1201306   -394.13338    297.89455    23787.521    1295.9559 
   95600   -398.45257    4.3509457   -394.10162      314.583    23927.898    1295.9559 
   95700   -398.31976    4.2500961   -394.06966    307.29135    23733.558    1295.9559 
   95800   -398.53642    4.5008673   -394.03555    325.42266    23098.936    1295.9559 
   95900   -398.26637    4.2679673    -393.9984    308.58348    24515.684    1295.9559 
   96000   -398.25364     4.297594   -393.95604    310.72555    24406.281    1295.9559 
   96100   -398.54834    4.6350458    -393.9133    335.12407    23404.848    1295.9559 
   96200   -397.83565    3.9642526    -393.8714    286.62423    25657.346    1295.9559 
   96300   -398.43787    4.6150684    -393.8228    333.67966    24417.995    1295.9559 
   96400   -398.48479    4.7085232   -393.77627    340.43664    23820.681    1295.9559 
   96500    -397.9141    4.1881224   -393.72598    302.81051    25579.205    1295.9559 
   96600   -398.41869    4.7421686   -393.67652    342.86928    24643.883    1295.9559 
   96700   -397.99377    4.3664137   -393.62736    315.70137    25468.418    1295.9559 
   96800   -398.54084    4.9585619   -393.58228    358.51499     23941.94    1295.9559 
   96900   -397.66311    4.1267622   -393.53634    298.37403    26889.699    1295.9559 
   97000   -398.41828    4.9285251   -393.48976    356.34326    24384.209    1295.9559 
   97100   -398.37866    4.9345279   -393.44413    356.77728    24586.825    1295.9559 
   97200   -397.44538    4.0361083   -393.40927    291.81956     27166.93    1295.9559 
   97300   -398.52264    5.1580177   -393.36462    372.93609    24313.805    1295.9559 
   97400   -397.54726    4.2171454   -393.33011    304.90894    26897.326    1295.9559 
   97500   -398.12748    4.8347797    -393.2927    349.56527    25043.039    1295.9559 
   97600   -397.94927    4.6893887   -393.25988    339.05317    26069.791    1295.9559 
   97700   -397.86614    4.6354918   -393.23065    335.15631    25995.659    1295.9559 
   97800   -398.18236    4.9807362   -393.20162    360.11825    25369.433    1295.9559 
   97900   -397.63165    4.4499293   -393.18172    321.73973    27137.228    1295.9559 
   98000   -397.85793    4.6933024   -393.16463    339.33615    25991.803    1295.9559 
   98100   -398.00558    4.8570119   -393.14857    351.17271    25504.034    1295.9559 
   98200   -397.64413    4.5025468   -393.14158    325.54409    26718.632    1295.9559 
   98300    -398.2771    5.1509824   -393.12612    372.42742    24928.374    1295.9559 
   98400   -397.69636     4.575686   -393.12067    330.83222    26536.439    1295.9559 
   98500   -397.65187    4.5360291   -393.11584    327.96494    26910.151    1295.9559 
   98600    -398.3983    5.2810265   -393.11727     381.8299    24528.474    1295.9559 
   98700   -397.95517    4.8303626   -393.12481     349.2459    25574.277    1295.9559 
   98800   -397.87301    4.7368631   -393.13615    342.48568    25848.359    1295.9559 
   98900   -397.71293    4.5570927   -393.15583    329.48788    26490.573    1295.9559 
   99000   -397.90936    4.7222316   -393.18712    341.42779    25802.767    1295.9559 
   99100   -398.44254    5.2136497   -393.22889     376.9584    24008.931    1295.9559 
   99200   -397.58478     4.294349   -393.29043    310.49093    27131.394    1295.9559 
   99300   -398.30003    4.9344143   -393.36562    356.76907    24677.465    1295.9559 
   99400   -397.84409    4.3753423   -393.46875    316.34692    25503.976    1295.9559 
   99500   -398.32886    4.7643646    -393.5645     344.4741    24454.605    1295.9559 
   99600   -397.83742    4.1556556   -393.68176    300.46309    25904.658    1295.9559 
   99700   -398.52116    4.7226754   -393.79848    341.45988    23378.269    1295.9559 
   99800   -398.30406    4.3963038   -393.90775    317.86249    24016.226    1295.9559 
   99900   -398.33126    4.3237892   -394.00747    312.61952    24408.798    1295.9559 
  100000   -398.28072    4.1840213    -394.0967      302.514    24131.674    1295.9559 
Loop time of 1667.57 on 1 procs for 100000 steps with 108 atoms

Performance: 2.591 ns/day, 9.264 hours/ns, 59.967 timesteps/s
627.4% CPU use with 1 MPI tasks x no OpenMP threads

MPI task timing breakdown:
Section |  min time  |  avg time  |  max time  |%varavg| %total
---------------------------------------------------------------
Pair    | 1645.5     | 1645.5     | 1645.5     |   0.0 | 98.67
Neigh   | 16.602     | 16.602     | 16.602     |   0.0 |  1.00
Comm    | 2.5397     | 2.5397     | 2.5397     |   0.0 |  0.15
Output  | 0.25044    | 0.25044    | 0.25044    |   0.0 |  0.02
Modify  | 2.2469     | 2.2469     | 2.2469     |   0.0 |  0.13
Other   |            | 0.479      |            |       |  0.03

Nlocal:        108.000 ave         108 max         108 min
Histogram: 1 0 0 0 0 0 0 0 0 0
Nghost:        1580.00 ave        1580 max        1580 min
Histogram: 1 0 0 0 0 0 0 0 0 0
Neighs:        9646.00 ave        9646 max        9646 min
Histogram: 1 0 0 0 0 0 0 0 0 0
FullNghs:      19292.0 ave       19292 max       19292 min
Histogram: 1 0 0 0 0 0 0 0 0 0

Total # of neighbors = 19292
Ave neighs/atom = 178.62963
Neighbor list builds = 10000
Dangerous builds not checked
Total wall time: 0:27:47
