5.445000000000000284e+00 0.000000000000000000e+00 1.814999999999999947e+00 0.000000000000000000e+00 5.445000000000000284e+00 5.445000000000000284e+00 3.629999999999999893e+00 5.445000000000000284e+00 5.445000000000000284e+00 3.629999999999999893e+00 1.814999999999999947e+00 5.445000000000000284e+00 1.814999999999999947e+00 5.445000000000000284e+00 3.629999999999999893e+00 3.629999999999999893e+00 0.000000000000000000e+00 0.000000000000000000e+00 1.814999999999999947e+00 0.000000000000000000e+00 5.445000000000000284e+00 0.000000000000000000e+00 5.445000000000000284e+00 1.814999999999999947e+00 5.445000000000000284e+00 1.814999999999999947e+00 0.000000000000000000e+00 5.445000000000000284e+00 5.445000000000000284e+00 3.629999999999999893e+00 0.000000000000000000e+00 0.000000000000000000e+00 3.629999999999999893e+00 3.629999999999999893e+00 5.445000000000000284e+00 1.814999999999999947e+00 5.445000000000000284e+00 5.445000000000000284e+00 0.000000000000000000e+00 3.629999999999999893e+00 0.000000000000000000e+00 3.629999999999999893e+00 5.445000000000000284e+00 0.000000000000000000e+00 5.445000000000000284e+00 0.000000000000000000e+00 1.814999999999999947e+00 5.445000000000000284e+00 1.814999999999999947e+00 1.814999999999999947e+00 3.629999999999999893e+00 3.629999999999999893e+00 3.629999999999999893e+00 3.629999999999999893e+00 0.000000000000000000e+00 0.000000000000000000e+00 0.000000000000000000e+00 5.445000000000000284e+00 3.629999999999999893e+00 1.814999999999999947e+00 3.629999999999999893e+00 3.629999999999999893e+00 0.000000000000000000e+00 1.814999999999999947e+00 3.629999999999999893e+00 1.814999999999999947e+00 0.000000000000000000e+00 3.629999999999999893e+00 0.000000000000000000e+00 0.000000000000000000e+00 3.629999999999999893e+00 3.629999999999999893e+00 1.814999999999999947e+00 1.814999999999999947e+00 0.000000000000000000e+00 0.000000000000000000e+00 1.814999999999999947e+00 1.814999999999999947e+00 5.445000000000000284e+00 1.814999999999999947e+00 3.629999999999999893e+00 1.814999999999999947e+00 5.445000000000000284e+00 0.000000000000000000e+00 5.445000000000000284e+00 3.629999999999999893e+00 5.445000000000000284e+00 1.814999999999999947e+00 0.000000000000000000e+00 1.814999999999999947e+00 1.814999999999999947e+00 3.629999999999999893e+00 5.445000000000000284e+00 3.629999999999999893e+00 1.814999999999999947e+00 1.814999999999999947e+00
5.445229999999999571e+00 7.259470000000000312e+00 1.812829999999999941e+00 1.860000000000000108e-03 5.446290000000000298e+00 5.440889999999999560e+00 3.629770000000000163e+00 5.438819999999999766e+00 5.442409999999999748e+00 3.630539999999999878e+00 1.812249999999999917e+00 5.449880000000000280e+00 1.812750000000000083e+00 5.444340000000000401e+00 3.626240000000000130e+00 3.628740000000000077e+00 7.257609999999999673e+00 7.258619999999999628e+00 1.815430000000000099e+00 7.257039999999999935e+00 5.447949999999999626e+00 1.100000000000000039e-04 5.445319999999999716e+00 1.815439999999999943e+00 5.447009999999999685e+00 1.816040000000000099e+00 7.258680000000000021e+00 5.443570000000000242e+00 5.443139999999999645e+00 3.630749999999999922e+00 5.599999999999999509e-04 1.340000000000000045e-03 3.630650000000000155e+00 3.632670000000000066e+00 5.448909999999999698e+00 1.814840000000000009e+00 5.442599999999999660e+00 5.441889999999999894e+00 1.110000000000000092e-03 3.633360000000000145e+00 3.119999999999999944e-03 3.631149999999999878e+00 5.447610000000000063e+00 7.257019999999999804e+00 5.445599999999999774e+00 1.180000000000000059e-03 1.814950000000000063e+00 5.444429999999999659e+00 1.812640000000000029e+00 1.813160000000000105e+00 3.625950000000000006e+00 3.629290000000000127e+00 3.632919999999999927e+00 3.633570000000000189e+00 7.259149999999999991e+00 7.259430000000000049e+00 7.259759999999999991e+00 5.444899999999999629e+00 3.630900000000000016e+00 1.813530000000000086e+00 3.628190000000000026e+00 3.634389999999999787e+00 7.255749999999999922e+00 1.814210000000000100e+00 3.629220000000000113e+00 1.813690000000000024e+00 1.100000000000000039e-04 3.631959999999999855e+00 2.850000000000000103e-03 7.255359999999999587e+00 3.631470000000000198e+00 3.629579999999999806e+00 1.816370000000000040e+00 1.819239999999999968e+00 4.709999999999999777e-03 1.520000000000000084e-03 1.814179999999999904e+00 1.816550000000000109e+00 5.446909999999999918e+00 1.814389999999999947e+00 3.628509999999999902e+00 1.816859999999999919e+00 5.444180000000000241e+00 1.399999999999999986e-03 5.440039999999999765e+00 3.628719999999999946e+00 5.444969999999999644e+00 1.813190000000000079e+00 1.420000000000000038e-03 1.817630000000000079e+00 1.816149999999999931e+00 3.631180000000000074e+00 5.443450000000000344e+00 3.632120000000000015e+00 1.815690000000000026e+00 1.816629999999999967e+00
5.445459999999999745e+00 7.258939999999999948e+00 1.810659999999999936e+00 3.710000000000000190e-03 5.447560000000000180e+00 5.436790000000000234e+00 3.629539999999999988e+00 5.432669999999999888e+00 5.439829999999999721e+00 3.631079999999999863e+00 1.809509999999999952e+00 5.454740000000000144e+00 1.810510000000000064e+00 5.443679999999999630e+00 3.622479999999999922e+00 3.627489999999999881e+00 7.255239999999999689e+00 7.257240000000000357e+00 1.815849999999999964e+00 7.254089999999999705e+00 5.450899999999999856e+00 2.100000000000000087e-04 5.445649999999999658e+00 1.815879999999999939e+00 5.449010000000000353e+00 1.817080000000000028e+00 7.257369999999999877e+00 5.442140000000000200e+00 5.441290000000000404e+00 3.631499999999999950e+00 1.110000000000000092e-03 2.680000000000000090e-03 3.631310000000000038e+00 3.635330000000000172e+00 5.452799999999999869e+00 1.814689999999999914e+00 5.440220000000000056e+00 5.438790000000000013e+00 2.210000000000000159e-03 3.636709999999999887e+00 6.230000000000000294e-03 3.632309999999999928e+00 5.450199999999999712e+00 7.254050000000000331e+00 5.446200000000000152e+00 2.350000000000000092e-03 1.814910000000000023e+00 5.443859999999999921e+00 1.810300000000000020e+00 1.811320000000000041e+00 3.621919999999999806e+00 3.628579999999999917e+00 3.635819999999999830e+00 3.637109999999999843e+00 7.258309999999999818e+00 7.258860000000000312e+00 7.259509999999999685e+00 5.444790000000000241e+00 3.631790000000000074e+00 1.812060000000000004e+00 3.626380000000000159e+00 3.638749999999999929e+00 7.251520000000000188e+00 1.813430000000000097e+00 3.628439999999999888e+00 1.812389999999999946e+00 2.200000000000000078e-04 3.633919999999999817e+00 5.680000000000000153e-03 7.250740000000000407e+00 3.632929999999999993e+00 3.629160000000000164e+00 1.817730000000000068e+00 1.823460000000000081e+00 9.400000000000000369e-03 3.020000000000000115e-03 1.813369999999999926e+00 1.818089999999999984e+00 5.448820000000000441e+00 1.813779999999999948e+00 3.627040000000000042e+00 1.818719999999999892e+00 5.443369999999999820e+00 2.799999999999999972e-03 5.435109999999999886e+00 3.627439999999999998e+00 5.444950000000000401e+00 1.811399999999999899e+00 2.840000000000000076e-03 1.820249999999999924e+00 1.817290000000000072e+00 3.632340000000000124e+00 5.441910000000000025e+00 3.634240000000000137e+00 1.816380000000000106e+00 1.818249999999999922e+00
5.445689999999999920e+00 7.258420000000000094e+00 1.808499999999999996e+00 5.550000000000000246e-03 5.448809999999999931e+00 5.432730000000000281e+00 3.629300000000000193e+00 5.426580000000000403e+00 5.437260000000000204e+00 3.631600000000000161e+00 1.806769999999999987e+00 5.459559999999999746e+00 1.808289999999999953e+00 5.443030000000000257e+00 3.618739999999999846e+00 3.626240000000000130e+00 7.252880000000000216e+00 7.255869999999999820e+00 1.816289999999999960e+00 7.251170000000000115e+00 5.453820000000000334e+00 3.099999999999999999e-04 5.445990000000000109e+00 1.816310000000000091e+00 5.450999999999999623e+00 1.818119999999999958e+00 7.256059999999999732e+00 5.440719999999999779e+00 5.439460000000000406e+00 3.632239999999999913e+00 1.649999999999999991e-03 4.000000000000000083e-03 3.631959999999999855e+00 3.637960000000000083e+00 5.456669999999999909e+00 1.814559999999999951e+00 5.437859999999999694e+00 5.435719999999999885e+00 3.279999999999999930e-03 3.640039999999999942e+00 9.320000000000000159e-03 3.633469999999999978e+00 5.452779999999999738e+00 7.251100000000000101e+00 5.446810000000000151e+00 3.540000000000000178e-03 1.814880000000000049e+00 5.443299999999999805e+00 1.807989999999999986e+00 1.809520000000000017e+00 3.617939999999999934e+00 3.627860000000000085e+00 3.638679999999999914e+00 3.640610000000000124e+00 7.257480000000000153e+00 7.258280000000000065e+00 7.259269999999999889e+00 5.444670000000000343e+00 3.632660000000000000e+00 1.810610000000000053e+00 3.624589999999999979e+00 3.643079999999999874e+00 7.247340000000000337e+00 1.812670000000000003e+00 3.627689999999999859e+00 1.811109999999999998e+00 3.299999999999999982e-04 3.635870000000000157e+00 8.479999999999999691e-03 7.246150000000000091e+00 3.634370000000000100e+00 3.628750000000000142e+00 1.819080000000000030e+00 1.827649999999999997e+00 1.405999999999999958e-02 4.510000000000000120e-03 1.812570000000000014e+00 1.819609999999999950e+00 5.450709999999999944e+00 1.813180000000000014e+00 3.625579999999999803e+00 1.820549999999999891e+00 5.442569999999999908e+00 4.199999999999999740e-03 5.430229999999999890e+00 3.626160000000000050e+00 5.444930000000000270e+00 1.809630000000000072e+00 4.239999999999999845e-03 1.822840000000000016e+00 1.818389999999999951e+00 3.633480000000000043e+00 5.440360000000000085e+00 3.636350000000000193e+00 1.817080000000000028e+00 1.819860000000000033e+00
5.445929999999999715e+00 7.257909999999999862e+00 1.806349999999999900e+00 7.360000000000000223e-03 5.450029999999999930e+00 5.428729999999999833e+00 3.629049999999999887e+00 5.420600000000000307e+00 5.434689999999999799e+00 3.632109999999999950e+00 1.804040000000000088e+00 5.464330000000000354e+00 1.806110000000000104e+00 5.442409999999999748e+00 3.615019999999999900e+00 3.625010000000000066e+00 7.250539999999999985e+00 7.254509999999999792e+00 1.816729999999999956e+00 7.248269999999999769e+00 5.456710000000000171e+00 3.899999999999999929e-04 5.446329999999999671e+00 1.816740000000000022e+00 5.452969999999999651e+00 1.819139999999999979e+00 7.254780000000000229e+00 5.439320000000000377e+00 5.437660000000000160e+00 3.632969999999999811e+00 2.180000000000000080e-03 5.300000000000000024e-03 3.632610000000000117e+00 3.640550000000000175e+00 5.460510000000000197e+00 1.814440000000000053e+00 5.435539999999999594e+00 5.432669999999999888e+00 4.329999999999999648e-03 3.643330000000000179e+00 1.238000000000000038e-02 3.634650000000000158e+00 5.455339999999999634e+00 7.248149999999999871e+00 5.447420000000000151e+00 4.729999999999999830e-03 1.814859999999999918e+00 5.442759999999999820e+00 1.805719999999999992e+00 1.807739999999999903e+00 3.614020000000000010e+00 3.627139999999999809e+00 3.641469999999999985e+00 3.644039999999999946e+00 7.256669999999999732e+00 7.257710000000000328e+00 7.259030000000000094e+00 5.444519999999999804e+00 3.633529999999999927e+00 1.809160000000000101e+00 3.622809999999999864e+00 3.647349999999999870e+00 7.243229999999999613e+00 1.811940000000000106e+00 3.626949999999999896e+00 1.809860000000000024e+00 4.400000000000000157e-04 3.637809999999999988e+00 1.122000000000000081e-02 7.241600000000000037e+00 3.635790000000000077e+00 3.628340000000000121e+00 1.820419999999999927e+00 1.831790000000000029e+00 1.866999999999999910e-02 5.950000000000000427e-03 1.811779999999999946e+00 1.821110000000000007e+00 5.452569999999999695e+00 1.812589999999999923e+00 3.624140000000000139e+00 1.822349999999999914e+00 5.441790000000000127e+00 5.590000000000000351e-03 5.425440000000000040e+00 3.624870000000000037e+00 5.444919999999999760e+00 1.807889999999999997e+00 5.629999999999999588e-03 1.825390000000000068e+00 1.819450000000000012e+00 3.634590000000000209e+00 5.438810000000000144e+00 3.638459999999999805e+00 1.817790000000000017e+00 1.821439999999999948e+00
5.446189999999999642e+00 7.257419999999999760e+00 1.804219999999999935e+00 9.150000000000000147e-03 5.451190000000000424e+00 5.424789999999999779e+00 3.628779999999999895e+00 5.414749999999999730e+00 5.432129999999999903e+00 3.632579999999999920e+00 1.801330000000000098e+00 5.469030000000000058e+00 1.803960000000000008e+00 5.441799999999999748e+00 3.611320000000000086e+00 3.623810000000000198e+00 7.248219999999999885e+00 7.253180000000000405e+00 1.817180000000000017e+00 7.245420000000000194e+00 5.459570000000000256e+00 4.499999999999999877e-04 5.446679999999999744e+00 1.817150000000000043e+00 5.454920000000000435e+00 1.820160000000000000e+00 7.253519999999999968e+00 5.437940000000000218e+00 5.435909999999999798e+00 3.633669999999999956e+00 2.680000000000000090e-03 6.570000000000000319e-03 3.633249999999999869e+00 3.643089999999999939e+00 5.464299999999999713e+00 1.814349999999999907e+00 5.433270000000000266e+00 5.429669999999999774e+00 5.329999999999999669e-03 3.646580000000000155e+00 1.540000000000000049e-02 3.635829999999999895e+00 5.457849999999999646e+00 7.245230000000000281e+00 5.448030000000000150e+00 5.930000000000000375e-03 1.814869999999999983e+00 5.442249999999999588e+00 1.803500000000000103e+00 1.806009999999999893e+00 3.610199999999999854e+00 3.626399999999999846e+00 3.644179999999999975e+00 3.647390000000000132e+00 7.255889999999999951e+00 7.257130000000000081e+00 7.258799999999999919e+00 5.444350000000000023e+00 3.634370000000000100e+00 1.807739999999999903e+00 3.621049999999999880e+00 3.651549999999999851e+00 7.239209999999999923e+00 1.811250000000000027e+00 3.626250000000000195e+00 1.808670000000000000e+00 5.400000000000000069e-04 3.639740000000000197e+00 1.388999999999999957e-02 7.237099999999999866e+00 3.637179999999999858e+00 3.627949999999999786e+00 1.821739999999999915e+00 1.835869999999999891e+00 2.322000000000000106e-02 7.340000000000000170e-03 1.810999999999999943e+00 1.822559999999999958e+00 5.454399999999999693e+00 1.812019999999999964e+00 3.622739999999999849e+00 1.824100000000000055e+00 5.441019999999999968e+00 6.989999999999999686e-03 5.420740000000000336e+00 3.623580000000000023e+00 5.444910000000000139e+00 1.806200000000000028e+00 6.989999999999999686e-03 1.827890000000000015e+00 1.820440000000000058e+00 3.635660000000000114e+00 5.437260000000000204e+00 3.640569999999999862e+00 1.818519999999999914e+00 1.822980000000000045e+00
5.446460000000000079e+00 7.256940000000000168e+00 1.802100000000000035e+00 1.089999999999999997e-02 5.452309999999999768e+00 5.420930000000000248e+00 3.628499999999999837e+00 5.409069999999999823e+00 5.429579999999999629e+00 3.633020000000000138e+00 1.798629999999999951e+00 5.473659999999999748e+00 1.801879999999999926e+00 5.441209999999999880e+00 3.607650000000000023e+00 3.622619999999999951e+00 7.245949999999999669e+00 7.251870000000000260e+00 1.817649999999999988e+00 7.242619999999999614e+00 5.462369999999999948e+00 5.000000000000000104e-04 5.447049999999999947e+00 1.817560000000000064e+00 5.456850000000000200e+00 1.821159999999999890e+00 7.252299999999999969e+00 5.436580000000000190e+00 5.434210000000000207e+00 3.634349999999999969e+00 3.150000000000000022e-03 7.799999999999999642e-03 3.633890000000000065e+00 3.645570000000000199e+00 5.468029999999999724e+00 1.814300000000000024e+00 5.431070000000000064e+00 5.426709999999999923e+00 6.289999999999999584e-03 3.649779999999999802e+00 1.837000000000000091e-02 3.637030000000000207e+00 5.460329999999999906e+00 7.242329999999999934e+00 5.448640000000000150e+00 7.139999999999999646e-03 1.814910000000000023e+00 5.441760000000000375e+00 1.801350000000000007e+00 1.804329999999999989e+00 3.606479999999999908e+00 3.625659999999999883e+00 3.646790000000000198e+00 3.650630000000000042e+00 7.255139999999999922e+00 7.256540000000000212e+00 7.258569999999999744e+00 5.444149999999999601e+00 3.635190000000000143e+00 1.806329999999999991e+00 3.619310000000000027e+00 3.655660000000000132e+00 7.235289999999999999e+00 1.810599999999999987e+00 3.625589999999999868e+00 1.807530000000000081e+00 6.499999999999999702e-04 3.641659999999999897e+00 1.646999999999999853e-02 7.232669999999999710e+00 3.638539999999999885e+00 3.627559999999999896e+00 1.823039999999999994e+00 1.839879999999999960e+00 2.769999999999999893e-02 8.680000000000000215e-03 1.810249999999999915e+00 1.823979999999999935e+00 5.456199999999999939e+00 1.811460000000000070e+00 3.621370000000000200e+00 1.825809999999999933e+00 5.440279999999999561e+00 8.380000000000000296e-03 5.416170000000000151e+00 3.622279999999999944e+00 5.444910000000000139e+00 1.804550000000000098e+00 8.330000000000000598e-03 1.830330000000000013e+00 1.821369999999999933e+00 3.636670000000000069e+00 5.435710000000000264e+00 3.642669999999999852e+00 1.819260000000000099e+00 1.824489999999999945e+00
5.446749999999999758e+00 7.256490000000000329e+00 1.800010000000000110e+00 1.260999999999999968e-02 5.453359999999999985e+00 5.417169999999999597e+00 3.628200000000000092e+00 5.403570000000000206e+00 5.427039999999999864e+00 3.633410000000000029e+00 1.795940000000000092e+00 5.478189999999999671e+00 1.799849999999999950e+00 5.440660000000000274e+00 3.604010000000000158e+00 3.621459999999999901e+00 7.243710000000000093e+00 7.250580000000000247e+00 1.818130000000000024e+00 7.239880000000000315e+00 5.465130000000000265e+00 5.199999999999999544e-04 5.447440000000000282e+00 1.817949999999999955e+00 5.458750000000000213e+00 1.822149999999999936e+00 7.251100000000000101e+00 5.435260000000000424e+00 5.432570000000000121e+00 3.634999999999999787e+00 3.589999999999999875e-03 8.989999999999999727e-03 3.634520000000000195e+00 3.647980000000000000e+00 5.471709999999999852e+00 1.814279999999999893e+00 5.428930000000000256e+00 5.423809999999999576e+00 7.179999999999999750e-03 3.652930000000000010e+00 2.128000000000000030e-02 3.638250000000000206e+00 5.462760000000000282e+00 7.239449999999999719e+00 5.449270000000000280e+00 8.380000000000000296e-03 1.814980000000000038e+00 5.441300000000000026e+00 1.799279999999999990e+00 1.802720000000000100e+00 3.602899999999999991e+00 3.624890000000000168e+00 3.649270000000000014e+00 3.653739999999999988e+00 7.254430000000000156e+00 7.255950000000000344e+00 7.258350000000000080e+00 5.443900000000000183e+00 3.635979999999999990e+00 1.804939999999999989e+00 3.617599999999999927e+00 3.659660000000000135e+00 7.231510000000000105e+00 1.810009999999999897e+00 3.624969999999999803e+00 1.806449999999999889e+00 7.399999999999999894e-04 3.643559999999999910e+00 1.896000000000000116e-02 7.228309999999999569e+00 3.639860000000000095e+00 3.627200000000000202e+00 1.824310000000000098e+00 1.843809999999999949e+00 3.209000000000000047e-02 9.939999999999999183e-03 1.809509999999999952e+00 1.825339999999999963e+00 5.457950000000000301e+00 1.810910000000000020e+00 3.620049999999999990e+00 1.827460000000000084e+00 5.439569999999999794e+00 9.759999999999999579e-03 5.411730000000000373e+00 3.620969999999999800e+00 5.444919999999999760e+00 1.802969999999999962e+00 9.620000000000000079e-03 1.832699999999999996e+00 1.822200000000000042e+00 3.637620000000000076e+00 5.434149999999999814e+00 3.644769999999999843e+00 1.820019999999999971e+00 1.825939999999999896e+00
5.447059999999999569e+00 7.256050000000000111e+00 1.797930000000000028e+00 1.427999999999999929e-02 5.454329999999999679e+00 5.413509999999999600e+00 3.627880000000000216e+00 5.398290000000000255e+00 5.424520000000000231e+00 3.633770000000000167e+00 1.793260000000000076e+00 5.482630000000000337e+00 1.797889999999999988e+00 5.440140000000000420e+00 3.600400000000000045e+00 3.620330000000000048e+00 7.241500000000000270e+00 7.249319999999999986e+00 1.818619999999999903e+00 7.237199999999999633e+00 5.467819999999999681e+00 5.000000000000000104e-04 5.447849999999999859e+00 1.818330000000000002e+00 5.460630000000000095e+00 1.823120000000000074e+00 7.249939999999999607e+00 5.433959999999999901e+00 5.431000000000000050e+00 3.635619999999999852e+00 4.000000000000000083e-03 1.013999999999999971e-02 3.635149999999999881e+00 3.650319999999999787e+00 5.475319999999999965e+00 1.814310000000000089e+00 5.426879999999999704e+00 5.420969999999999622e+00 8.009999999999999759e-03 3.656010000000000204e+00 2.414000000000000173e-02 3.639499999999999957e+00 5.465139999999999887e+00 7.236600000000000144e+00 5.449900000000000411e+00 9.629999999999999671e-03 1.815090000000000092e+00 5.440879999999999939e+00 1.797279999999999989e+00 1.801180000000000003e+00 3.599450000000000038e+00 3.624109999999999943e+00 3.651619999999999866e+00 3.656709999999999905e+00 7.253770000000000273e+00 7.255359999999999587e+00 7.258130000000000415e+00 5.443609999999999616e+00 3.636740000000000084e+00 1.803579999999999961e+00 3.615909999999999958e+00 3.663559999999999928e+00 7.227870000000000239e+00 1.809479999999999977e+00 3.624410000000000132e+00 1.805460000000000065e+00 8.400000000000000348e-04 3.645449999999999857e+00 2.132999999999999827e-02 7.224020000000000330e+00 3.641129999999999978e+00 3.626850000000000129e+00 1.825560000000000072e+00 1.847650000000000015e+00 3.638999999999999874e-02 1.112999999999999927e-02 1.808799999999999963e+00 1.826640000000000041e+00 5.459660000000000402e+00 1.810389999999999944e+00 3.618780000000000108e+00 1.829039999999999999e+00 5.438889999999999780e+00 1.115000000000000019e-02 5.407460000000000377e+00 3.619639999999999969e+00 5.444950000000000401e+00 1.801449999999999996e+00 1.089000000000000037e-02 1.834999999999999964e+00 1.822929999999999939e+00 3.638500000000000068e+00 5.432579999999999742e+00 3.646860000000000213e+00 1.820799999999999974e+00 1.827350000000000030e+00
5.447390000000000398e+00 7.255650000000000155e+00 1.795879999999999921e+00 1.591000000000000053e-02 5.455230000000000246e+00 5.409959999999999880e+00 3.627520000000000078e+00 5.393239999999999590e+00 5.421999999999999709e+00 3.634069999999999911e+00 1.790599999999999969e+00 5.486970000000000347e+00 1.795989999999999975e+00 5.439650000000000318e+00 3.596820000000000128e+00 3.619240000000000013e+00 7.239340000000000330e+00 7.248099999999999987e+00 1.819139999999999979e+00 7.234580000000000233e+00 5.470460000000000100e+00 4.600000000000000139e-04 5.448279999999999568e+00 1.818689999999999918e+00 5.462469999999999715e+00 1.824079999999999924e+00 7.248820000000000263e+00 5.432699999999999640e+00 5.429499999999999993e+00 3.636210000000000164e+00 4.360000000000000160e-03 1.123000000000000040e-02 3.635769999999999946e+00 3.652569999999999872e+00 5.478869999999999685e+00 1.814389999999999947e+00 5.424909999999999677e+00 5.418199999999999683e+00 8.760000000000000425e-03 3.659030000000000005e+00 2.692999999999999908e-02 3.640779999999999905e+00 5.467459999999999987e+00 7.233769999999999811e+00 5.450540000000000163e+00 1.090999999999999956e-02 1.815239999999999965e+00 5.440489999999999604e+00 1.795390000000000041e+00 1.799709999999999921e+00 3.596150000000000180e+00 3.623310000000000031e+00 3.653810000000000002e+00 3.659530000000000172e+00 7.253149999999999764e+00 7.254749999999999588e+00 7.257920000000000371e+00 5.443260000000000431e+00 3.637459999999999916e+00 1.802249999999999908e+00 3.614250000000000185e+00 3.667330000000000201e+00 7.224389999999999645e+00 1.809020000000000072e+00 3.623909999999999965e+00 1.804550000000000098e+00 9.300000000000000541e-04 3.647320000000000118e+00 2.358999999999999986e-02 7.219809999999999839e+00 3.642349999999999977e+00 3.626510000000000122e+00 1.826789999999999914e+00 1.851390000000000091e+00 4.059999999999999720e-02 1.221999999999999996e-02 1.808119999999999949e+00 1.827879999999999949e+00 5.461330000000000240e+00 1.809889999999999999e+00 3.617570000000000174e+00 1.830540000000000056e+00 5.438250000000000028e+00 1.254000000000000080e-02 5.403360000000000163e+00 3.618290000000000006e+00 5.444980000000000153e+00 1.800010000000000110e+00 1.210999999999999924e-02 1.837210000000000010e+00 1.823539999999999939e+00 3.639299999999999979e+00 5.431000000000000050e+00 3.648950000000000138e+00 1.821609999999999951e+00 1.828699999999999992e+00
5.447750000000000092e+00 7.255270000000000330e+00 1.793840000000000101e+00 1.748999999999999860e-02 5.456030000000000157e+00 5.406530000000000058e+00 3.627130000000000187e+00 5.388460000000000250e+00 5.419489999999999696e+00 3.634320000000000217e+00 1.787940000000000085e+00 5.491209999999999702e+00 1.794180000000000108e+00 5.439199999999999591e+00 3.593269999999999964e+00 3.618180000000000174e+00 7.237219999999999764e+00 7.246909999999999741e+00 1.819679999999999964e+00 7.232039999999999580e+00 5.473029999999999617e+00 3.800000000000000209e-04 5.448750000000000426e+00 1.819039999999999990e+00 5.464290000000000092e+00 1.825020000000000087e+00 7.247749999999999915e+00 5.431460000000000399e+00 5.428079999999999572e+00 3.636760000000000215e+00 4.680000000000000132e-03 1.227999999999999925e-02 3.636390000000000011e+00 3.654729999999999812e+00 5.482350000000000279e+00 1.814529999999999976e+00 5.423029999999999795e+00 5.415499999999999758e+00 9.429999999999999147e-03 3.661979999999999791e+00 2.966999999999999846e-02 3.642079999999999984e+00 5.469739999999999824e+00 7.230970000000000120e+00 5.451190000000000424e+00 1.221999999999999996e-02 1.815430000000000099e+00 5.440150000000000041e+00 1.793590000000000018e+00 1.798340000000000050e+00 3.593010000000000037e+00 3.622479999999999922e+00 3.655829999999999913e+00 3.662160000000000082e+00 7.252589999999999648e+00 7.254129999999999967e+00 7.257710000000000328e+00 5.442859999999999587e+00 3.638139999999999930e+00 1.800939999999999985e+00 3.612620000000000164e+00 3.670970000000000066e+00 7.221070000000000100e+00 1.808640000000000025e+00 3.623479999999999812e+00 1.803730000000000055e+00 1.010000000000000047e-03 3.649189999999999934e+00 2.572999999999999940e-02 7.215679999999999872e+00 3.643520000000000092e+00 3.626199999999999868e+00 1.827990000000000004e+00 1.855040000000000022e+00 4.469999999999999668e-02 1.320999999999999952e-02 1.807479999999999976e+00 1.829039999999999999e+00 5.462939999999999685e+00 1.809409999999999963e+00 3.616410000000000124e+00 1.831970000000000098e+00 5.437640000000000029e+00 1.392999999999999967e-02 5.399449999999999861e+00 3.616909999999999847e+00 5.445030000000000037e+00 1.798650000000000082e+00 1.328000000000000014e-02 1.839320000000000066e+00 1.824030000000000040e+00 3.640010000000000190e+00 5.429400000000000226e+00 3.651050000000000129e+00 1.822449999999999903e+00 1.830000000000000071e+00
5.448140000000000427e+00 7.254920000000000258e+00 1.791809999999999903e+00 1.902999999999999831e-02 5.456739999999999924e+00 5.403209999999999624e+00 3.626710000000000100e+00 5.383949999999999569e+00 5.416979999999999684e+00 3.634500000000000064e+00 1.785279999999999978e+00 5.495350000000000179e+00 1.792450000000000099e+00 5.438780000000000392e+00 3.589739999999999931e+00 3.617160000000000153e+00 7.235140000000000349e+00 7.245750000000000135e+00 1.820240000000000080e+00 7.229549999999999699e+00 5.475530000000000008e+00 2.500000000000000052e-04 5.449239999999999640e+00 1.819369999999999932e+00 5.466079999999999828e+00 1.825939999999999896e+00 7.246719999999999828e+00 5.430270000000000152e+00 5.426739999999999675e+00 3.637270000000000003e+00 4.950000000000000407e-03 1.325999999999999922e-02 3.637010000000000076e+00 3.656789999999999985e+00 5.485759999999999970e+00 1.814740000000000020e+00 5.421249999999999680e+00 5.412860000000000227e+00 1.000999999999999980e-02 3.664880000000000138e+00 3.234000000000000069e-02 3.643429999999999946e+00 5.471949999999999648e+00 7.228180000000000049e+00 5.451870000000000438e+00 1.357000000000000046e-02 1.815679999999999961e+00 5.439860000000000362e+00 1.791889999999999983e+00 1.797050000000000036e+00 3.590050000000000185e+00 3.621620000000000061e+00 3.657669999999999977e+00 3.664610000000000145e+00 7.252080000000000304e+00 7.253499999999999837e+00 7.257509999999999906e+00 5.442389999999999617e+00 3.638790000000000191e+00 1.799660000000000037e+00 3.611009999999999831e+00 3.674469999999999903e+00 7.217929999999999957e+00 1.808329999999999993e+00 3.623110000000000053e+00 1.803020000000000067e+00 1.090000000000000040e-03 3.651040000000000063e+00 2.773000000000000118e-02 7.211630000000000429e+00 3.644639999999999880e+00 3.625900000000000123e+00 1.829159999999999897e+00 1.858579999999999899e+00 4.871000000000000330e-02 1.409999999999999969e-02 1.806859999999999911e+00 1.830140000000000100e+00 5.464500000000000135e+00 1.808959999999999901e+00 3.615320000000000089e+00 1.833320000000000061e+00 5.437079999999999913e+00 1.533999999999999947e-02 5.395730000000000359e+00 3.615489999999999871e+00 5.445090000000000430e+00 1.797379999999999978e+00 1.440999999999999920e-02 1.841339999999999977e+00 1.824379999999999891e+00 3.640639999999999876e+00 5.427780000000000271e+00 3.653150000000000119e+00 1.823329999999999895e+00 1.831239999999999979e+00