-1.192723435500000022e+02
-1.192705962099999937e+02
-1.192653830400000032e+02
-1.192568041399999998e+02
-1.192450115799999963e+02
-1.192302202900000054e+02
-1.192126997600000067e+02
-1.191927548400000063e+02
-1.191707072800000020e+02
-1.191469284899999934e+02
-1.191217717699999952e+02
-1.190956158700000032e+02
-1.190687892499999947e+02
-1.190416519399999942e+02
-1.190145254399999999e+02
-1.189877076599999981e+02
-1.189614920599999977e+02
-1.189361176700000016e+02
-1.189118193900000051e+02
-1.188887945500000001e+02
-1.189264086099999957e+02
-1.189243755199999981e+02
-1.189196444199999974e+02
-1.189123047100000008e+02
-1.189024771200000004e+02
-1.188903227600000037e+02
-1.188760212499999938e+02
-1.188597883700000040e+02
-1.188418325800000019e+02
-1.188223622299999960e+02
-1.188016110300000037e+02
-1.187797768599999984e+02
-1.187570604600000053e+02
-1.187336610600000029e+02
-1.187097582300000056e+02
-1.186855050900000066e+02
-1.186610551100000066e+02
-1.186365518300000019e+02
-1.186120962499999933e+02
-1.185878135399999991e+02
-1.190941582899999958e+02
-1.190919349800000049e+02
-1.190865655399999952e+02
-1.190781548399999963e+02
-1.190668828200000036e+02
-1.190529723700000062e+02
-1.190366656500000033e+02
-1.190182762200000042e+02
-1.189981094399999932e+02
-1.189764732099999947e+02
-1.189537081900000004e+02
-1.189301164799999952e+02
-1.189060138100000046e+02
-1.188816684699999939e+02
-1.188573360200000053e+02
-1.188332500000000067e+02
-1.188096133699999939e+02
-1.187866080499999981e+02
-1.187643634100000014e+02
-1.187430000100000029e+02
-1.191137188099999946e+02
-1.191120231999999959e+02
-1.191068065900000050e+02
-1.190982007500000037e+02
-1.190863803000000019e+02
-1.190715938700000009e+02
-1.190541339100000044e+02
-1.190343314999999933e+02
-1.190125338099999937e+02
-1.189891380499999940e+02
-1.189645052500000020e+02
-1.189390041700000040e+02
-1.189129862500000030e+02
-1.188867750699999988e+02
-1.188606762600000053e+02
-1.188349653300000028e+02
-1.188098898399999968e+02
-1.187856663000000026e+02
-1.187624696099999966e+02
-1.187404430800000057e+02
-1.189198285500000054e+02
-1.189192712699999959e+02
-1.189158893299999988e+02
-1.189097390600000068e+02
-1.189009150899999980e+02
-1.188895532399999979e+02
-1.188758317300000016e+02
-1.188599504000000024e+02
-1.188421359700000011e+02
-1.188226188400000041e+02
-1.188016474599999981e+02
-1.187794654799999989e+02
-1.187563251299999934e+02
-1.187324542399999956e+02
-1.187080859000000004e+02
-1.186834225700000047e+02
-1.186586590200000018e+02
-1.186339888199999990e+02
-1.186095635300000026e+02
-1.185855180300000029e+02
-1.190412915999999939e+02
-1.190391516899999971e+02
-1.190338939800000020e+02
-1.190256298799999968e+02
-1.190145099100000010e+02
-1.190007416299999932e+02
-1.189845598299999949e+02
-1.189662386699999956e+02
-1.189460558800000030e+02
-1.189243249200000037e+02
-1.189013379799999939e+02
-1.188774047200000012e+02
-1.188528112099999987e+02
-1.188278196899999983e+02
-1.188026800600000001e+02
-1.187776260899999983e+02
-1.187528616099999965e+02
-1.187285610499999962e+02
-1.187048832400000009e+02
-1.186819592300000039e+02
-1.191070285800000050e+02
-1.191061978299999993e+02
-1.191018426499999947e+02
-1.190940682500000065e+02
-1.190830142700000067e+02
-1.190689215099999956e+02
-1.190520600600000023e+02
-1.190327287199999944e+02
-1.190112762600000025e+02
-1.189880404200000044e+02
-1.189633879000000007e+02
-1.189376589099999961e+02
-1.189112014300000055e+02
-1.188843296099999947e+02
-1.188573591399999998e+02
-1.188305510699999985e+02
-1.188041853000000003e+02
-1.187784813300000053e+02
-1.187536588699999953e+02
-1.187298971099999960e+02
-1.189815242199999972e+02
-1.189807146200000005e+02
-1.189767903500000017e+02
-1.189698385300000041e+02
-1.189599795299999982e+02
-1.189473695399999968e+02
-1.189322316899999947e+02
-1.189148037100000010e+02
-1.188953329299999950e+02
-1.188740742500000067e+02
-1.188513150299999950e+02
-1.188273052899999982e+02
-1.188023061399999989e+02
-1.187765875099999988e+02
-1.187503890400000017e+02
-1.187239431400000029e+02
-1.186974592600000022e+02
-1.186711461299999968e+02
-1.186451871900000015e+02
-1.186197592399999934e+02
-1.192017377300000049e+02
-1.191998044300000004e+02
-1.191944596799999943e+02
-1.191858255599999978e+02
-1.191740651599999978e+02
-1.191593974799999955e+02
-1.191420941599999992e+02
-1.191224374600000004e+02
-1.191007494800000046e+02
-1.190773618000000056e+02
-1.190525967800000018e+02
-1.190267689599999983e+02
-1.190001924000000031e+02
-1.189731550599999963e+02
-1.189459320100000070e+02
-1.189187701999999973e+02
-1.188919024700000051e+02
-1.188655372999999997e+02
-1.188398668699999945e+02
-1.188150569799999943e+02
-1.191791667199999978e+02
-1.191769910799999934e+02
-1.191716762300000028e+02
-1.191633420600000051e+02
-1.191521516100000042e+02
-1.191383325500000012e+02
-1.191221135699999962e+02
-1.191037915800000064e+02
-1.190836688299999935e+02
-1.190620636700000006e+02
-1.190392697700000042e+02
-1.190156078699999966e+02
-1.189913588099999942e+02
-1.189667912799999954e+02
-1.189421740300000039e+02
-1.189177320099999946e+02
-1.188936697799999962e+02
-1.188701776799999976e+02
-1.188474021199999981e+02
-1.188254756500000013e+02
-1.191772597700000063e+02
-1.191764155099999982e+02
-1.191721353800000003e+02
-1.191645085600000016e+02
-1.191536827700000032e+02
-1.191398694899999953e+02
-1.191233191700000020e+02
-1.191043124899999981e+02
-1.190831813500000038e+02
-1.190602393900000067e+02
-1.190358181999999942e+02
-1.190102201600000029e+02
-1.189837693999999999e+02
-1.189567650900000046e+02
-1.189294734000000062e+02
-1.189021642000000014e+02
-1.188750717300000019e+02
-1.188484088900000017e+02
-1.188223784200000068e+02
-1.187971431800000062e+02
-1.189055674500000066e+02
-1.189029684900000063e+02
-1.188974214299999943e+02
-1.188890489300000013e+02
-1.188780098200000026e+02
-1.188645122300000025e+02
-1.188487705699999992e+02
-1.188310414400000070e+02
-1.188115795899999938e+02
-1.187906468799999971e+02
-1.187684943400000037e+02
-1.187453728299999938e+02
-1.187215326599999941e+02
-1.186971922099999972e+02
-1.186725713600000063e+02
-1.186478505200000058e+02
-1.186232274700000033e+02
-1.185988390699999968e+02
-1.185748289600000049e+02
-1.185513293300000015e+02
-1.190350295199999948e+02
-1.190343934899999994e+02
-1.190313742900000022e+02
-1.190260100999999935e+02
-1.190183408399999934e+02
-1.190084853700000025e+02
-1.189965547000000043e+02
-1.189826989299999980e+02
-1.189670905199999993e+02
-1.189498959799999938e+02
-1.189312997699999954e+02
-1.189114837799999975e+02
-1.188906286400000027e+02
-1.188689231700000022e+02
-1.188465258599999999e+02
-1.188236180199999978e+02
-1.188003560100000016e+02
-1.187768778100000020e+02
-1.187533152999999970e+02
-1.187297984399999962e+02
-1.189928355800000048e+02
-1.189911329499999937e+02
-1.189858459499999981e+02
-1.189770941900000025e+02
-1.189650636199999951e+02
-1.189500118400000019e+02
-1.189322233799999964e+02
-1.189120464700000070e+02
-1.188898288700000023e+02
-1.188659369800000007e+02
-1.188407511999999997e+02
-1.188146496199999973e+02
-1.187879753600000043e+02
-1.187610894900000034e+02
-1.187342993400000069e+02
-1.187078999499999981e+02
-1.186821563900000029e+02
-1.186573114899999979e+02
-1.186335652700000054e+02
-1.186110920299999947e+02
-1.189541119600000059e+02
-1.189525839700000063e+02
-1.189476300799999962e+02
-1.189393479999999954e+02
-1.189278906899999981e+02
-1.189134882299999987e+02
-1.188964247600000022e+02
-1.188770080200000052e+02
-1.188555966699999971e+02
-1.188325568000000061e+02
-1.188082518500000049e+02
-1.187830524499999996e+02
-1.187573037199999959e+02
-1.187313383500000015e+02
-1.187054881699999953e+02
-1.186800102299999935e+02
-1.186551650100000046e+02
-1.186311809200000056e+02
-1.186082355100000001e+02
-1.185864951100000013e+02
-1.190701963199999938e+02
-1.190684674799999954e+02
-1.190634007999999966e+02
-1.190550979799999993e+02
-1.190437249799999933e+02
-1.190295046300000052e+02
-1.190127041500000047e+02
-1.189936058400000007e+02
-1.189725247199999956e+02
-1.189497940600000021e+02
-1.189257523499999962e+02
-1.189007087500000068e+02
-1.188749782699999997e+02
-1.188488425299999989e+02
-1.188225871799999993e+02
-1.187964564600000017e+02
-1.187706756200000058e+02
-1.187454368799999997e+02
-1.187209245100000032e+02
-1.186972803200000044e+02
-1.189785514999999947e+02
-1.189761861900000071e+02
-1.189700920300000035e+02
-1.189603766200000052e+02
-1.189472756600000025e+02
-1.189310427199999936e+02
-1.189120040399999993e+02
-1.188905370300000044e+02
-1.188670277500000054e+02
-1.188418732899999952e+02
-1.188155018700000056e+02
-1.187883178900000019e+02
-1.187607208600000064e+02
-1.187330805299999952e+02
-1.187057535900000005e+02
-1.186790836499999955e+02
-1.186533718400000055e+02
-1.186288888600000035e+02
-1.186058823300000000e+02
-1.185845644000000050e+02
-1.189137214499999970e+02
-1.189108081199999987e+02
-1.189040925999999985e+02
-1.188937070399999953e+02
-1.188798900799999956e+02
-1.188629375699999997e+02
-1.188431970900000039e+02
-1.188210560899999990e+02
-1.187969383399999970e+02
-1.187712677199999973e+02
-1.187444833999999929e+02
-1.187169638600000070e+02
-1.186891210400000034e+02
-1.186613353099999983e+02
-1.186339493100000055e+02
-1.186072760699999975e+02
-1.185815937100000070e+02
-1.185571551700000015e+02
-1.185341590700000012e+02
-1.185127723199999963e+02
-1.186741317200000054e+02
-1.186715707799999961e+02
-1.186650606500000009e+02
-1.186547489799999937e+02
-1.186408734700000025e+02
-1.186237519900000024e+02
-1.186037591300000003e+02
-1.185813205999999980e+02
-1.185568635599999965e+02
-1.185308548299999956e+02
-1.185037530299999986e+02
-1.184760081000000014e+02
-1.184480383799999998e+02
-1.184202668799999998e+02
-1.183930586799999958e+02
-1.183667613899999935e+02
-1.183416779700000063e+02
-1.183180995200000041e+02
-1.182962517200000008e+02
-1.182763411499999933e+02
-1.189737610699999948e+02
-1.189719074599999971e+02
-1.189665423099999941e+02
-1.189577888599999937e+02
-1.189458549600000055e+02
-1.189310018599999950e+02
-1.189135174599999942e+02
-1.188937714599999964e+02
-1.188721352900000028e+02
-1.188489813700000042e+02
-1.188247025299999962e+02
-1.187996854200000030e+02
-1.187742793099999972e+02
-1.187488322199999971e+02
-1.187236431900000042e+02
-1.186989980299999985e+02
-1.186751483500000006e+02
-1.186523134699999957e+02
-1.186306473500000038e+02
-1.186102892800000035e+02
-1.190665429900000021e+02
-1.190650434199999950e+02
-1.190599694900000003e+02
-1.190514222700000033e+02
-1.190395633299999929e+02
-1.190246252000000027e+02
-1.190068876200000005e+02
-1.189866882299999986e+02
-1.189643660800000049e+02
-1.189402826099999970e+02
-1.189148362499999934e+02
-1.188884062999999998e+02
-1.188613625299999939e+02
-1.188340684900000070e+02
-1.188068535999999966e+02
-1.187800490599999961e+02
-1.187539490099999995e+02
-1.187288469399999968e+02
-1.187049869500000057e+02
-1.186826099700000015e+02
-1.191315252899999990e+02
-1.191296543699999972e+02
-1.191248273500000039e+02
-1.191171034900000052e+02
-1.191066107099999982e+02
-1.190934903699999978e+02
-1.190779334399999954e+02
-1.190601666499999993e+02
-1.190404232799999988e+02
-1.190189508200000006e+02
-1.189960088400000018e+02
-1.189718558499999972e+02
-1.189467424999999992e+02
-1.189209208099999984e+02
-1.188946098199999994e+02
-1.188680448799999994e+02
-1.188414262200000024e+02
-1.188149294300000065e+02
-1.187887456499999956e+02
-1.187630130900000012e+02
-1.190484802900000005e+02
-1.190471428099999969e+02
-1.190429288699999972e+02
-1.190359211300000055e+02
-1.190262552899999946e+02
-1.190140981100000062e+02
-1.189996672399999937e+02
-1.189832111200000071e+02
-1.189649383400000033e+02
-1.189451347699999957e+02
-1.189240519100000029e+02
-1.189019422500000047e+02
-1.188790549499999969e+02
-1.188556387800000067e+02
-1.188318936999999949e+02
-1.188080419799999987e+02
-1.187842610099999945e+02
-1.187607182200000011e+02
-1.187375445299999939e+02
-1.187148608800000034e+02
-1.191207896300000044e+02
-1.191193168300000025e+02
-1.191147220499999975e+02
-1.191071147800000034e+02
-1.190966480900000022e+02
-1.190835204499999946e+02
-1.190679711100000020e+02
-1.190502572500000014e+02
-1.190306752200000062e+02
-1.190095157199999960e+02
-1.189870889200000050e+02
-1.189636953800000043e+02
-1.189396153800000064e+02
-1.189151315499999981e+02
-1.188904860100000036e+02
-1.188659052200000019e+02
-1.188416160499999989e+02
-1.188177981700000032e+02
-1.187946034699999984e+02
-1.187721594100000004e+02
-1.191270329599999940e+02
-1.191266802399999989e+02
-1.191228073399999943e+02
-1.191154689399999995e+02
-1.191047713600000009e+02
-1.190909167399999973e+02
-1.190741399300000012e+02
-1.190547320799999937e+02
-1.190330323600000071e+02
-1.190094019600000053e+02
-1.189842197400000003e+02
-1.189578562800000014e+02
-1.189306888100000066e+02
-1.189030843400000066e+02
-1.188753871800000042e+02
-1.188479369599999984e+02
-1.188210459299999968e+02
-1.187950087400000001e+02
-1.187700963900000062e+02
-1.187465443300000061e+02
-1.189232053500000035e+02
-1.189216425599999951e+02
-1.189170065699999981e+02
-1.189094105500000040e+02
-1.188989881100000048e+02
-1.188859530200000023e+02
-1.188705405900000045e+02
-1.188530130799999966e+02
-1.188336489900000004e+02
-1.188127546200000069e+02
-1.187906147099999998e+02
-1.187675129800000065e+02
-1.187437131399999970e+02
-1.187194766399999963e+02
-1.186950289600000019e+02
-1.186705668099999968e+02
-1.186462867099999983e+02
-1.186223410099999995e+02
-1.185988797400000010e+02
-1.185759931300000005e+02
-1.189108878100000055e+02
-1.189100651100000050e+02
-1.189054324100000031e+02
-1.188970976699999937e+02
-1.188852220800000055e+02
-1.188700792000000064e+02
-1.188519693799999999e+02
-1.188312822500000010e+02
-1.188084163599999954e+02
-1.187837977199999955e+02
-1.187578521399999971e+02
-1.187310053700000054e+02
-1.187036692599999981e+02
-1.186762416699999960e+02
-1.186490866900000043e+02
-1.186225390599999940e+02
-1.185969181699999950e+02
-1.185724909599999961e+02
-1.185494944400000037e+02
-1.185281305099999969e+02
-1.187893366499999956e+02
-1.187874684199999962e+02
-1.187819055599999984e+02
-1.187727476799999948e+02
-1.187601842299999930e+02
-1.187444703900000036e+02
-1.187259606500000046e+02
-1.187050346300000001e+02
-1.186821151399999934e+02
-1.186576413199999962e+02
-1.186320571600000022e+02
-1.186058001100000041e+02
-1.185793010400000043e+02
-1.185529648600000030e+02
-1.185271740000000023e+02
-1.185022459099999992e+02
-1.184784750099999968e+02
-1.184561136399999981e+02
-1.184353398199999958e+02
-1.184163025200000021e+02
-1.191475615800000014e+02
-1.191451735800000051e+02
-1.191397808100000049e+02
-1.191314807499999944e+02
-1.191204290099999952e+02
-1.191068243699999982e+02
-1.190908767600000004e+02
-1.190728656699999988e+02
-1.190530614000000043e+02
-1.190317656499999970e+02
-1.190092589700000048e+02
-1.189858372799999984e+02
-1.189617583900000000e+02
-1.189372849699999932e+02
-1.189126493600000032e+02
-1.188880809900000060e+02
-1.188637584199999964e+02
-1.188398565199999979e+02
-1.188165271700000005e+02
-1.187938854199999952e+02
-1.191462451900000019e+02
-1.191433920700000044e+02
-1.191369281000000058e+02
-1.191269845599999968e+02
-1.191137692700000059e+02
-1.190975439599999959e+02
-1.190786248000000001e+02
-1.190573557900000026e+02
-1.190341142200000064e+02
-1.190092867900000044e+02
-1.189832518200000067e+02
-1.189563891300000051e+02
-1.189290559500000057e+02
-1.189015903800000018e+02
-1.188743082299999969e+02
-1.188475154700000047e+02
-1.188214841399999955e+02
-1.187964549999999946e+02
-1.187726402199999995e+02
-1.187502232500000048e+02
-1.190308540200000067e+02
-1.190295300899999944e+02
-1.190244591099999951e+02
-1.190157729000000018e+02
-1.190036779099999933e+02
-1.189884509299999991e+02
-1.189704121500000014e+02
-1.189499253599999946e+02
-1.189273772899999955e+02
-1.189031661700000058e+02
-1.188777030199999984e+02
-1.188513672600000035e+02
-1.188245467699999978e+02
-1.187975937399999964e+02
-1.187708622899999966e+02
-1.187446517999999998e+02
-1.187192521099999993e+02
-1.186949111100000067e+02
-1.186718531300000024e+02
-1.186502706299999943e+02
-1.186398260600000043e+02
-1.186388483100000002e+02
-1.186337995199999966e+02
-1.186248239100000035e+02
-1.186121423400000054e+02
-1.185960647200000011e+02
-1.185769494200000054e+02
-1.185552165099999939e+02
-1.185312891399999984e+02
-1.185056256799999943e+02
-1.184786651000000006e+02
-1.184508509599999968e+02
-1.184226009799999986e+02
-1.183943120800000059e+02
-1.183663442600000053e+02
-1.183390348700000061e+02
-1.183126936400000062e+02
-1.182875949400000053e+02
-1.182639823500000062e+02
-1.182420527499999992e+02
-1.187984497099999999e+02
-1.187964956099999938e+02
-1.187909008200000045e+02
-1.187817967000000010e+02
-1.187693990899999932e+02
-1.187539874900000001e+02
-1.187359098400000050e+02
-1.187155771200000061e+02
-1.186933928899999984e+02
-1.186697936999999996e+02
-1.186452319400000022e+02
-1.186201256100000023e+02
-1.185949037400000066e+02
-1.185699375199999963e+02
-1.185455828300000007e+02
-1.185221362000000056e+02
-1.184998690900000042e+02
-1.184789899200000036e+02
-1.184596624899999995e+02
-1.184419671200000010e+02
-1.191027117299999958e+02
-1.190999285099999980e+02
-1.190938153000000028e+02
-1.190844859999999983e+02
-1.190721182999999996e+02
-1.190569341300000019e+02
-1.190392188699999991e+02
-1.190192782499999993e+02
-1.189974325599999929e+02
-1.189740209999999934e+02
-1.189493836599999952e+02
-1.189238409700000005e+02
-1.188977181000000058e+02
-1.188713274600000034e+02
-1.188449509099999943e+02
-1.188188529600000010e+02
-1.187933002700000031e+02
-1.187685168999999945e+02
-1.187447211900000070e+02
-1.187220982200000066e+02
-1.189327018799999962e+02
-1.189302125499999931e+02
-1.189239391200000000e+02
-1.189140355899999975e+02
-1.189007349599999941e+02
-1.188843388100000027e+02
-1.188651908300000031e+02
-1.188436864300000053e+02
-1.188202301599999942e+02
-1.187952509099999929e+02
-1.187691666300000009e+02
-1.187423708299999987e+02
-1.187152496399999961e+02
-1.186881562100000025e+02
-1.186614173899999969e+02
-1.186353479499999963e+02
-1.186102026300000034e+02
-1.185862167699999929e+02
-1.185635965999999968e+02
-1.185424923599999971e+02
-1.191399553300000065e+02
-1.191384201500000017e+02
-1.191339505800000040e+02
-1.191266491100000025e+02
-1.191166559899999982e+02
-1.191041474599999930e+02
-1.190893342399999995e+02
-1.190724596400000053e+02
-1.190537721400000066e+02
-1.190335228099999938e+02
-1.190119752899999952e+02
-1.189893855499999944e+02
-1.189659802900000045e+02
-1.189419937600000026e+02
-1.189176331799999957e+02
-1.188930945900000040e+02
-1.188685572899999983e+02
-1.188441675199999992e+02
-1.188200801499999955e+02
-1.187964042100000057e+02
-1.189323199600000009e+02
-1.189297785800000042e+02
-1.189233987500000040e+02
-1.189133098399999966e+02
-1.188997312599999958e+02
-1.188829397199999960e+02
-1.188632852000000071e+02
-1.188411486199999985e+02
-1.188169528600000007e+02
-1.187911254800000052e+02
-1.187641000400000024e+02
-1.187363085500000039e+02
-1.187081545500000033e+02
-1.186800334699999979e+02
-1.186523015799999996e+02
-1.186253078000000016e+02
-1.185993668400000018e+02
-1.185747730500000046e+02
-1.185517858399999938e+02
-1.185306376599999965e+02
-1.191135819600000048e+02
-1.191116305099999977e+02
-1.191067725700000040e+02
-1.190991125299999993e+02
-1.190887852299999992e+02
-1.190759825599999999e+02
-1.190609185800000063e+02
-1.190438438700000034e+02
-1.190250122399999952e+02
-1.190047030300000017e+02
-1.189831887200000011e+02
-1.189607423399999959e+02
-1.189376005999999961e+02
-1.189140248399999962e+02
-1.188902259299999997e+02
-1.188664234000000022e+02
-1.188427910799999978e+02
-1.188194830900000056e+02
-1.187966317900000064e+02
-1.187743546899999956e+02
-1.191380744899999939e+02
-1.191368994299999997e+02
-1.191327489500000070e+02
-1.191256802099999987e+02
-1.191157924999999977e+02
-1.191032357200000007e+02
-1.190881912699999958e+02
-1.190708966499999946e+02
-1.190516027099999974e+02
-1.190305668900000029e+02
-1.190080523900000031e+02
-1.189843562599999984e+02
-1.189597314300000050e+02
-1.189344507800000059e+02
-1.189087722000000014e+02
-1.188829442400000005e+02
-1.188571973199999974e+02
-1.188317479899999967e+02
-1.188068031899999966e+02
-1.187825415399999969e+02
-1.190844417999999933e+02
-1.190836856399999988e+02
-1.190801445999999970e+02
-1.190738718000000063e+02
-1.190649573700000019e+02
-1.190535370000000057e+02
-1.190397751000000000e+02
-1.190238797699999935e+02
-1.190060343399999994e+02
-1.189864768999999995e+02
-1.189654438200000044e+02
-1.189431503699999979e+02
-1.189198526200000003e+02
-1.188957712400000020e+02
-1.188711069000000009e+02
-1.188460882400000003e+02
-1.188208986399999958e+02
-1.187957073299999990e+02
-1.187706824800000049e+02
-1.187459762900000015e+02
-1.185499221500000004e+02
-1.185468800999999957e+02
-1.185398229900000047e+02
-1.185289497699999970e+02
-1.185145514000000020e+02
-1.184969940900000012e+02
-1.184767078900000001e+02
-1.184541588000000019e+02
-1.184298567999999960e+02
-1.184042839199999975e+02
-1.183779471900000004e+02
-1.183513253499999962e+02
-1.183248586999999930e+02
-1.182989565799999951e+02
-1.182739825799999949e+02
-1.182502571299999943e+02
-1.182280470999999977e+02
-1.182075518599999953e+02
-1.181889131300000031e+02
-1.181722014599999966e+02
-1.188110549900000024e+02
-1.188091111699999942e+02
-1.188033135099999953e+02
-1.187937864600000069e+02
-1.187807451399999934e+02
-1.187645091899999983e+02
-1.187454081399999950e+02
-1.187238657999999987e+02
-1.187003039100000024e+02
-1.186751854299999991e+02
-1.186489681700000034e+02
-1.186220972100000068e+02
-1.185949936399999984e+02
-1.185680622999999940e+02
-1.185416730500000000e+02
-1.185161604200000056e+02
-1.184918163300000060e+02
-1.184688906699999933e+02
-1.184475742200000070e+02
-1.184280154000000067e+02
-1.189026815499999969e+02
-1.189000307900000024e+02
-1.188935470400000014e+02
-1.188834077500000035e+02
-1.188698474499999946e+02
-1.188531842799999936e+02
-1.188337718199999955e+02
-1.188120190000000065e+02
-1.187883396200000021e+02
-1.187631697900000063e+02
-1.187369451200000015e+02
-1.187100860099999977e+02
-1.186829900700000024e+02
-1.186560353299999946e+02
-1.186295607200000006e+02
-1.186038750499999992e+02
-1.185792625699999974e+02
-1.185559678900000051e+02
-1.185341899200000029e+02
-1.185140883800000040e+02
-1.191665356999999972e+02
-1.191649603900000045e+02
-1.191599339699999973e+02
-1.191515624999999972e+02
-1.191400081599999936e+02
-1.191255208700000026e+02
-1.191083660400000070e+02
-1.190888695900000016e+02
-1.190673764000000006e+02
-1.190442270300000018e+02
-1.190197859099999960e+02
-1.189944252199999966e+02
-1.189684505200000046e+02
-1.189422073599999976e+02
-1.189160044799999980e+02
-1.188901170099999973e+02
-1.188648012999999963e+02
-1.188402964499999968e+02
-1.188168119200000064e+02
-1.187945214399999969e+02
-1.192263826100000017e+02
-1.192246516200000030e+02
-1.192198649599999953e+02
-1.192120915200000013e+02
-1.192014578400000033e+02
-1.191881522500000017e+02
-1.191723850999999996e+02
-1.191544085599999931e+02
-1.191345081999999991e+02
-1.191129691600000058e+02
-1.190901032600000065e+02
-1.190662044500000007e+02
-1.190415739299999984e+02
-1.190164829800000064e+02
-1.189912090199999994e+02
-1.189659970700000002e+02
-1.189410834800000032e+02
-1.189166726600000032e+02
-1.188929534600000011e+02
-1.188700812200000030e+02
-1.191728133400000047e+02
-1.191710668900000059e+02
-1.191656949999999995e+02
-1.191568187700000010e+02
-1.191446461799999952e+02
-1.191294452599999971e+02
-1.191115405599999946e+02
-1.190912887199999943e+02
-1.190690727799999991e+02
-1.190452992200000040e+02
-1.190203584799999987e+02
-1.189946450900000059e+02
-1.189685315499999945e+02
-1.189423774800000047e+02
-1.189165178800000007e+02
-1.188912578700000040e+02
-1.188668596299999933e+02
-1.188435689100000019e+02
-1.188215893800000060e+02
-1.188010729100000020e+02
-1.192184011300000037e+02
-1.192169801699999994e+02
-1.192117034599999954e+02
-1.192026978399999990e+02
-1.191901742299999967e+02
-1.191743989600000049e+02
-1.191557285399999984e+02
-1.191345457700000026e+02
-1.191112736500000011e+02
-1.190863463099999962e+02
-1.190602061200000037e+02
-1.190332844999999935e+02
-1.190060010899999980e+02
-1.189787475199999989e+02
-1.189519102699999991e+02
-1.189258259799999990e+02
-1.189008155799999997e+02
-1.188771666800000020e+02
-1.188551355400000062e+02
-1.188349276400000036e+02
-1.189343124300000056e+02
-1.189325591300000013e+02
-1.189275241699999981e+02
-1.189192829600000039e+02
-1.189080174399999947e+02
-1.188939336800000035e+02
-1.188772973600000000e+02
-1.188583780799999943e+02
-1.188374892100000011e+02
-1.188149572100000029e+02
-1.187910949500000015e+02
-1.187662296299999980e+02
-1.187406717899999933e+02
-1.187147298699999993e+02
-1.186886911400000031e+02
-1.186628166800000059e+02
-1.186373647900000066e+02
-1.186125614900000045e+02
-1.185886114200000065e+02
-1.185656894699999953e+02
-1.189641610299999996e+02
-1.189628179799999970e+02
-1.189576563100000044e+02
-1.189487745200000006e+02
-1.189363888400000064e+02
-1.189207683500000030e+02
-1.189022518600000069e+02
-1.188812262600000054e+02
-1.188580794899999944e+02
-1.188332531300000028e+02
-1.188071596099999994e+02
-1.187802153500000060e+02
-1.187528212299999950e+02
-1.187253575000000012e+02
-1.186981696099999937e+02
-1.186715819599999975e+02
-1.186458856800000063e+02
-1.186213360499999965e+02
-1.185981661299999956e+02
-1.185765515700000066e+02
-1.192026084299999980e+02
-1.192006838700000060e+02
-1.191954349199999967e+02
-1.191869662400000038e+02
-1.191754412800000011e+02
-1.191610713700000019e+02
-1.191441123000000033e+02
-1.191248647400000067e+02
-1.191036421400000052e+02
-1.190807677500000068e+02
-1.190565686300000010e+02
-1.190313793199999992e+02
-1.190055173199999956e+02
-1.189792824700000011e+02
-1.189529612599999950e+02
-1.189268205500000022e+02
-1.189010982899999931e+02
-1.188760122700000039e+02
-1.188517604900000038e+02
-1.188285148199999952e+02
