-2.400000000000000061e-05 -3.000000000000000076e-06 -2.900000000000000017e-05 -3.000000000000000076e-06 -3.699999999999999811e-05 4.899999999999999842e-05 3.000000000000000076e-06 -3.000000000000000076e-06 1.399999999999999979e-05 1.399999999999999979e-05 1.999999999999999909e-06 5.000000000000000409e-06 2.199999999999999943e-05 -1.200000000000000030e-05 1.299999999999999920e-05 3.000000000000000076e-06 -2.000000000000000164e-05 0.000000000000000000e+00 1.200000000000000030e-05 -2.199999999999999943e-05 2.799999999999999958e-05 0.000000000000000000e+00 -2.500000000000000120e-05 -5.000000000000000240e-05 1.900000000000000105e-05 1.399999999999999979e-05 -9.000000000000000228e-06 -2.199999999999999943e-05 -2.000000000000000164e-05 1.500000000000000038e-05 -3.999999999999999819e-06 -6.999999999999999895e-06 1.200000000000000030e-05 -9.999999999999999547e-07 9.000000000000000228e-06 -1.299999999999999920e-05 1.500000000000000038e-05 -1.699999999999999987e-05 -1.699999999999999987e-05 3.000000000000000076e-06 -1.099999999999999971e-05 0.000000000000000000e+00 -1.299999999999999920e-05 -9.000000000000000228e-06 2.900000000000000017e-05 -1.399999999999999979e-05 3.699999999999999811e-05 3.899999999999999929e-05 1.800000000000000046e-05 1.399999999999999979e-05 6.999999999999999895e-06 1.000000000000000082e-05 1.099999999999999971e-05 1.000000000000000082e-05 -3.000000000000000076e-06 -1.500000000000000038e-05 -1.099999999999999971e-05 1.000000000000000082e-05 3.999999999999999819e-06 -2.599999999999999840e-05 1.099999999999999971e-05 2.000000000000000164e-05 -1.099999999999999971e-05 -7.999999999999999638e-06 1.599999999999999928e-05 -2.699999999999999899e-05 -1.200000000000000030e-05 1.599999999999999928e-05 -2.300000000000000002e-05 -1.000000000000000082e-05 6.999999999999999895e-06 2.599999999999999840e-05 -1.800000000000000046e-05 9.000000000000000228e-06 -6.999999999999999895e-06 -1.099999999999999971e-05 2.400000000000000061e-05 -4.300000000000000165e-05 -1.599999999999999928e-05 1.800000000000000046e-05 1.099999999999999971e-05 -1.500000000000000038e-05 -1.099999999999999971e-05 -1.099999999999999971e-05 2.300000000000000002e-05 1.000000000000000082e-05 2.599999999999999840e-05 2.500000000000000120e-05 -1.599999999999999928e-05 -2.900000000000000017e-05 -2.099999999999999884e-05 2.099999999999999884e-05 2.599999999999999840e-05 1.000000000000000082e-05 -7.999999999999999638e-06 -3.999999999999999819e-06
4.662999999999999610e-03 5.970999999999999745e-03 7.875999999999999321e-03 -1.380900000000000009e-02 -2.028200000000000142e-02 3.178099999999999675e-02 -5.184000000000000240e-03 5.701400000000000218e-02 4.962000000000000265e-03 -1.256400000000000051e-02 6.361000000000000335e-03 -3.204499999999999710e-02 1.968299999999999911e-02 9.693999999999999492e-03 1.232399999999999989e-02 8.555999999999999370e-03 1.371099999999999923e-02 8.515999999999999265e-03 4.336999999999999710e-03 2.008400000000000116e-02 -1.771100000000000105e-02 -6.830000000000000134e-03 4.873999999999999860e-03 -4.009999999999999676e-03 -1.069499999999999965e-02 -5.041000000000000342e-03 1.103299999999999940e-02 9.665999999999999245e-03 1.887000000000000136e-02 -8.713999999999999524e-03 -9.776999999999999233e-03 -1.312800000000000078e-02 -2.358999999999999986e-03 -2.263899999999999940e-02 -2.156900000000000137e-02 1.115499999999999999e-02 2.314099999999999838e-02 1.857899999999999829e-02 -1.803000000000000089e-02 -2.024199999999999958e-02 -1.912300000000000111e-02 5.010999999999999829e-03 -1.608899999999999914e-02 9.898999999999999813e-03 1.203000000000000076e-03 3.929000000000000201e-03 1.003500000000000052e-02 9.936000000000000387e-03 2.412999999999999867e-02 1.926800000000000040e-02 4.021600000000000175e-02 -3.527999999999999886e-03 -3.628800000000000081e-02 -3.701399999999999829e-02 1.187000000000000034e-02 -9.879999999999999460e-04 1.668999999999999911e-03 -1.172199999999999978e-02 -9.239999999999999949e-03 7.627000000000000099e-03 9.834999999999999992e-03 -3.272200000000000109e-02 4.020900000000000168e-02 1.713699999999999946e-02 1.357300000000000000e-02 1.962699999999999861e-02 -1.474999999999999966e-03 -5.851000000000000298e-03 -3.191299999999999693e-02 2.506399999999999947e-02 -1.297700000000000069e-02 5.083999999999999977e-03 -8.668000000000000357e-03 -2.751699999999999979e-02 -2.864799999999999985e-02 -2.104100000000000067e-02 6.821999999999999939e-03 -1.573199999999999946e-02 -1.468099999999999961e-02 5.904000000000000394e-03 1.439600000000000081e-02 -1.847800000000000137e-02 8.951000000000000623e-03 -2.243000000000000202e-03 4.556000000000000327e-02 -1.043000000000000090e-03 3.573999999999999920e-03 1.886300000000000129e-02 -1.048200000000000000e-02 -2.187100000000000155e-02 -2.586600000000000010e-02 -1.912099999999999911e-02 -4.960000000000000216e-04 -3.226000000000000135e-03 5.760000000000000363e-03 -1.539100000000000017e-02
9.438999999999999474e-03 1.176499999999999942e-02 1.513399999999999988e-02 -2.657599999999999893e-02 -3.970100000000000018e-02 6.151999999999999830e-02 -1.051299999999999978e-02 1.127429999999999960e-01 9.754000000000000517e-03 -2.438399999999999943e-02 1.243400000000000061e-02 -6.165999999999999953e-02 3.837399999999999839e-02 1.875399999999999984e-02 2.371799999999999950e-02 1.692700000000000107e-02 2.616200000000000123e-02 1.676700000000000065e-02 8.448000000000000648e-03 3.855399999999999799e-02 -3.468000000000000249e-02 -1.377899999999999958e-02 9.678000000000000838e-03 -7.739000000000000219e-03 -2.043499999999999830e-02 -9.695999999999999758e-03 2.153499999999999859e-02 1.877900000000000055e-02 3.695699999999999680e-02 -1.708199999999999996e-02 -1.928699999999999859e-02 -2.574900000000000105e-02 -4.547999999999999959e-03 -4.418500000000000205e-02 -4.164999999999999952e-02 2.211099999999999871e-02 4.491099999999999953e-02 3.621300000000000213e-02 -3.561099999999999682e-02 -3.906799999999999856e-02 -3.714300000000000240e-02 9.978000000000000758e-03 -3.124299999999999994e-02 1.885600000000000123e-02 2.534999999999999927e-03 7.886000000000000648e-03 1.949199999999999891e-02 1.934200000000000155e-02 4.704599999999999754e-02 3.799199999999999799e-02 7.839699999999999447e-02 -7.082999999999999886e-03 -7.157099999999999573e-02 -7.318700000000000205e-02 2.336699999999999888e-02 -2.142999999999999940e-03 3.396999999999999846e-03 -2.302600000000000133e-02 -1.792300000000000143e-02 1.491800000000000070e-02 1.873299999999999965e-02 -6.394600000000000284e-02 7.867200000000000581e-02 3.334600000000000064e-02 2.691599999999999895e-02 3.886900000000000077e-02 -2.771000000000000026e-03 -1.115900000000000052e-02 -6.195599999999999719e-02 4.843499999999999889e-02 -2.531900000000000123e-02 9.516999999999999418e-03 -1.658700000000000105e-02 -5.356600000000000250e-02 -5.551299999999999985e-02 -4.150199999999999723e-02 1.359800000000000071e-02 -3.098199999999999912e-02 -2.817599999999999966e-02 1.157099999999999969e-02 2.823700000000000168e-02 -3.606199999999999684e-02 1.740200000000000080e-02 -4.095999999999999815e-03 8.881300000000000305e-02 -2.694999999999999913e-03 6.762999999999999914e-03 3.703800000000000148e-02 -2.062500000000000097e-02 -4.300899999999999862e-02 -5.090499999999999886e-02 -3.735299999999999732e-02 -1.077000000000000049e-03 -6.144000000000000156e-03 1.121699999999999954e-02 -3.003600000000000020e-02
1.436600000000000030e-02 1.790100000000000025e-02 2.237400000000000153e-02 -3.900300000000000294e-02 -5.903400000000000314e-02 9.118600000000000316e-02 -1.599400000000000127e-02 1.705490000000000061e-01 1.480899999999999925e-02 -3.616899999999999976e-02 1.830100000000000129e-02 -9.082099999999999895e-02 5.702000000000000124e-02 2.751800000000000079e-02 3.517699999999999994e-02 2.553899999999999920e-02 3.857900000000000218e-02 2.526400000000000173e-02 1.234900000000000060e-02 5.701300000000000118e-02 -5.188700000000000256e-02 -2.092700000000000116e-02 1.460700000000000019e-02 -1.169199999999999927e-02 -2.966099999999999987e-02 -1.450100000000000000e-02 3.217799999999999827e-02 2.796399999999999927e-02 5.539999999999999786e-02 -2.559799999999999923e-02 -2.898900000000000088e-02 -3.851399999999999962e-02 -6.662000000000000387e-03 -6.595399999999999874e-02 -6.170300000000000090e-02 3.340100000000000013e-02 6.699299999999999700e-02 5.432200000000000223e-02 -5.312700000000000061e-02 -5.775600000000000178e-02 -5.501400000000000040e-02 1.477200000000000041e-02 -4.635700000000000237e-02 2.807899999999999979e-02 3.897999999999999989e-03 1.175499999999999982e-02 2.884000000000000105e-02 2.870500000000000135e-02 7.014900000000000302e-02 5.714799999999999741e-02 1.168519999999999975e-01 -1.079600000000000004e-02 -1.077319999999999944e-01 -1.110860000000000042e-01 3.489500000000000240e-02 -3.298999999999999849e-03 5.223000000000000212e-03 -3.426799999999999985e-02 -2.678600000000000078e-02 2.241699999999999943e-02 2.746900000000000036e-02 -9.592399999999999538e-02 1.178939999999999988e-01 4.950100000000000333e-02 4.066600000000000076e-02 5.872700000000000142e-02 -4.000000000000000083e-03 -1.661599999999999883e-02 -9.187800000000000133e-02 7.201399999999999468e-02 -3.784900000000000070e-02 1.399500000000000050e-02 -2.443899999999999892e-02 -7.985100000000000531e-02 -8.266099999999999837e-02 -6.267999999999999960e-02 2.051400000000000098e-02 -4.677699999999999914e-02 -4.139400000000000024e-02 1.720800000000000107e-02 4.199800000000000061e-02 -5.424699999999999661e-02 2.608299999999999855e-02 -5.715999999999999727e-03 1.329390000000000016e-01 -4.998999999999999971e-03 9.789000000000000826e-03 5.539499999999999980e-02 -3.124499999999999847e-02 -6.470399999999999763e-02 -7.694700000000000151e-02 -5.593200000000000255e-02 -1.521000000000000000e-03 -9.041999999999999690e-03 1.636900000000000160e-02 -4.435399999999999759e-02
1.898899999999999894e-02 2.417400000000000104e-02 2.980299999999999963e-02 -5.111700000000000271e-02 -7.784599999999999853e-02 1.206490000000000062e-01 -2.145700000000000038e-02 2.294899999999999995e-01 2.086199999999999860e-02 -4.749799999999999855e-02 2.480399999999999966e-02 -1.197399999999999992e-01 7.563000000000000278e-02 3.573300000000000087e-02 4.752300000000000274e-02 3.431100000000000122e-02 5.101900000000000185e-02 3.384199999999999708e-02 1.589199999999999988e-02 7.545200000000000518e-02 -6.943000000000000560e-02 -2.795699999999999921e-02 1.923800000000000163e-02 -1.571499999999999980e-02 -3.875800000000000078e-02 -1.944399999999999948e-02 4.264699999999999741e-02 3.699199999999999711e-02 7.365099999999999425e-02 -3.388200000000000239e-02 -3.838099999999999845e-02 -5.108800000000000147e-02 -8.673000000000000154e-03 -8.778600000000000292e-02 -8.197300000000000419e-02 4.441099999999999909e-02 8.884100000000000330e-02 7.293399999999999883e-02 -7.036900000000000099e-02 -7.653500000000000580e-02 -7.283799999999999997e-02 1.894699999999999857e-02 -6.173700000000000021e-02 3.801700000000000218e-02 5.091000000000000039e-03 1.516200000000000013e-02 3.762299999999999672e-02 3.775400000000000283e-02 9.318300000000000194e-02 7.644099999999999506e-02 1.550999999999999879e-01 -1.430099999999999948e-02 -1.439680000000000126e-01 -1.495690000000000075e-01 4.620400000000000201e-02 -4.277999999999999685e-03 6.935000000000000192e-03 -4.502799999999999858e-02 -3.557500000000000245e-02 3.009799999999999975e-02 3.611799999999999733e-02 -1.285320000000000074e-01 1.571410000000000029e-01 6.507400000000000684e-02 5.427099999999999980e-02 7.845499999999999696e-02 -5.081999999999999712e-03 -2.254099999999999854e-02 -1.211990000000000012e-01 9.612800000000000511e-02 -5.040000000000000036e-02 1.841500000000000081e-02 -3.209300000000000347e-02 -1.065409999999999968e-01 -1.103969999999999951e-01 -8.364499999999999713e-02 2.754300000000000151e-02 -6.264400000000000523e-02 -5.439900000000000291e-02 2.275999999999999898e-02 5.560899999999999871e-02 -7.231100000000000028e-02 3.471400000000000180e-02 -7.622999999999999568e-03 1.769489999999999952e-01 -7.368000000000000417e-03 1.244299999999999920e-02 7.377200000000000424e-02 -4.213399999999999784e-02 -8.666100000000000192e-02 -1.025329999999999991e-01 -7.413899999999999657e-02 -1.446000000000000020e-03 -1.253199999999999974e-02 2.089999999999999844e-02 -5.825600000000000223e-02
2.352299999999999877e-02 3.041400000000000006e-02 3.698200000000000098e-02 -6.253699999999999537e-02 -9.595599999999999963e-02 1.489360000000000128e-01 -2.692699999999999955e-02 2.881569999999999965e-01 2.717699999999999977e-02 -5.827800000000000341e-02 3.127900000000000125e-02 -1.472160000000000135e-01 9.359099999999999364e-02 4.338299999999999795e-02 5.969499999999999806e-02 4.310200000000000142e-02 6.285899999999999821e-02 4.238000000000000100e-02 1.905799999999999855e-02 9.310599999999999432e-02 -8.669000000000000317e-02 -3.498600000000000321e-02 2.369100000000000025e-02 -1.966800000000000145e-02 -4.724699999999999733e-02 -2.428999999999999909e-02 5.281600000000000183e-02 4.570400000000000157e-02 9.140299999999999814e-02 -4.192200000000000093e-02 -4.747500000000000331e-02 -6.328699999999999604e-02 -1.054700000000000082e-02 -1.089679999999999954e-01 -1.015329999999999983e-01 5.524799999999999850e-02 1.099569999999999992e-01 9.124500000000000666e-02 -8.711099999999999399e-02 -9.457000000000000128e-02 -9.002000000000000279e-02 2.272700000000000067e-02 -7.665500000000000091e-02 4.778700000000000309e-02 6.283000000000000390e-03 1.837499999999999897e-02 4.586599999999999705e-02 4.642399999999999999e-02 1.155179999999999957e-01 9.542100000000000581e-02 1.921360000000000012e-01 -1.766699999999999868e-02 -1.796830000000000094e-01 -1.879850000000000132e-01 5.719099999999999878e-02 -5.285999999999999900e-03 8.663999999999999826e-03 -5.531099999999999905e-02 -4.397999999999999826e-02 3.765199999999999797e-02 4.428100000000000092e-02 -1.605260000000000020e-01 1.954539999999999889e-01 7.985699999999999743e-02 6.771699999999999942e-02 9.794999999999999540e-02 -6.026000000000000106e-03 -2.839300000000000157e-02 -1.492559999999999998e-01 1.195390000000000064e-01 -6.257999999999999674e-02 2.248199999999999851e-02 -3.935600000000000209e-02 -1.326450000000000129e-01 -1.374410000000000076e-01 -1.042649999999999966e-01 3.456599999999999950e-02 -7.830800000000000261e-02 -6.671199999999999353e-02 2.808899999999999939e-02 6.879399999999999404e-02 -9.002200000000000479e-02 4.309199999999999836e-02 -9.355000000000000468e-03 2.197350000000000136e-01 -1.008399999999999921e-02 1.475199999999999949e-02 9.173499999999999710e-02 -5.296000000000000013e-02 -1.083100000000000035e-01 -1.276229999999999865e-01 -9.173199999999999410e-02 -1.196999999999999930e-03 -1.612299999999999844e-02 2.496400000000000008e-02 -7.158000000000000473e-02
2.779999999999999832e-02 3.672700000000000270e-02 4.407599999999999713e-02 -7.324200000000000155e-02 -1.132159999999999972e-01 1.760799999999999865e-01 -3.238100000000000006e-02 3.462200000000000277e-01 3.391099999999999670e-02 -6.849700000000000233e-02 3.788799999999999807e-02 -1.734799999999999953e-01 1.109239999999999948e-01 5.046899999999999997e-02 7.194899999999999907e-02 5.191300000000000081e-02 7.433900000000000230e-02 5.090299999999999686e-02 2.178899999999999934e-02 1.101219999999999977e-01 -1.036539999999999961e-01 -4.192499999999999699e-02 2.786900000000000141e-02 -2.359899999999999845e-02 -5.530700000000000199e-02 -2.918099999999999861e-02 6.262800000000000311e-02 5.412800000000000250e-02 1.087029999999999941e-01 -4.968500000000000000e-02 -5.617899999999999977e-02 -7.505699999999999872e-02 -1.225200000000000074e-02 -1.295119999999999882e-01 -1.204270000000000063e-01 6.572799999999999476e-02 1.303269999999999984e-01 1.093879999999999991e-01 -1.032949999999999979e-01 -1.119490000000000068e-01 -1.064930000000000043e-01 2.600699999999999887e-02 -9.115099999999999592e-02 5.772200000000000247e-02 7.437000000000000034e-03 2.124600000000000100e-02 5.340400000000000008e-02 5.469500000000000056e-02 1.371989999999999876e-01 1.139929999999999971e-01 2.279519999999999880e-01 -2.083499999999999935e-02 -2.147739999999999927e-01 -2.260280000000000067e-01 6.785900000000000265e-02 -6.152000000000000350e-03 1.024500000000000063e-02 -6.501800000000000634e-02 -5.210800000000000154e-02 4.517199999999999688e-02 5.189300000000000163e-02 -1.921229999999999882e-01 2.327519999999999867e-01 9.380900000000000349e-02 8.086999999999999744e-02 1.170920000000000016e-01 -6.779000000000000303e-03 -3.434799999999999659e-02 -1.760889999999999955e-01 1.424370000000000080e-01 -7.443299999999999916e-02 2.627000000000000168e-02 -4.615999999999999964e-02 -1.582500000000000018e-01 -1.639680000000000026e-01 -1.244279999999999969e-01 4.159100000000000297e-02 -9.381200000000000649e-02 -7.851199999999999846e-02 3.320000000000000034e-02 8.167299999999999560e-02 -1.073899999999999993e-01 5.125600000000000295e-02 -1.119400000000000082e-02 2.611939999999999817e-01 -1.306599999999999949e-02 1.671600000000000169e-02 1.092930000000000013e-01 -6.362099999999999700e-02 -1.296529999999999905e-01 -1.520189999999999875e-01 -1.087130000000000041e-01 -5.829999999999999679e-04 -1.996300000000000158e-02 2.837399999999999992e-02 -8.429499999999999493e-02
3.183699999999999725e-02 4.303799999999999987e-02 5.115600000000000008e-02 -8.340100000000000291e-02 -1.298179999999999890e-01 2.023870000000000113e-01 -3.774799999999999683e-02 4.039179999999999993e-01 4.125199999999999700e-02 -7.814699999999999425e-02 4.495400000000000090e-02 -1.988090000000000135e-01 1.277659999999999907e-01 5.707299999999999873e-02 8.448999999999999566e-02 6.079799999999999788e-02 8.542500000000000093e-02 5.950799999999999840e-02 2.400000000000000050e-02 1.265989999999999893e-01 -1.205640000000000045e-01 -4.880899999999999822e-02 3.172500000000000320e-02 -2.749199999999999908e-02 -6.298199999999999632e-02 -3.410200000000000037e-02 7.211900000000000255e-02 6.227200000000000096e-02 1.255280000000000007e-01 -5.720100000000000184e-02 -6.453399999999999415e-02 -8.646299999999999819e-02 -1.385899999999999979e-02 -1.495809999999999917e-01 -1.390099999999999947e-01 7.590199999999999725e-02 1.500150000000000095e-01 1.273880000000000012e-01 -1.189790000000000014e-01 -1.289319999999999911e-01 -1.225230000000000069e-01 2.869999999999999982e-02 -1.053319999999999951e-01 6.783799999999999553e-02 8.498999999999999611e-03 2.372700000000000156e-02 6.025799999999999906e-02 6.259399999999999686e-02 1.583239999999999925e-01 1.322440000000000004e-01 2.627889999999999948e-01 -2.369699999999999931e-02 -2.493620000000000003e-01 -2.639420000000000099e-01 7.824000000000000399e-02 -6.897000000000000353e-03 1.177300000000000048e-02 -7.412799999999999945e-02 -5.988099999999999673e-02 5.270999999999999991e-02 5.914200000000000013e-02 -2.234039999999999915e-01 2.692410000000000081e-01 1.069100000000000050e-01 9.379999999999999449e-02 1.359670000000000045e-01 -7.360000000000000223e-03 -4.040200000000000041e-02 -2.017230000000000134e-01 1.651269999999999960e-01 -8.603399999999999936e-02 2.969099999999999864e-02 -5.272999999999999909e-02 -1.835549999999999959e-01 -1.901579999999999937e-01 -1.441369999999999874e-01 4.868299999999999711e-02 -1.091420000000000029e-01 -8.978600000000000469e-02 3.809400000000000286e-02 9.427299999999999569e-02 -1.244450000000000001e-01 5.915800000000000225e-02 -1.308199999999999988e-02 3.015889999999999960e-01 -1.607000000000000095e-02 1.832900000000000154e-02 1.264959999999999973e-01 -7.416100000000000469e-02 -1.507419999999999871e-01 -1.756939999999999891e-01 -1.250269999999999992e-01 4.400000000000000157e-04 -2.412699999999999914e-02 3.110200000000000117e-02 -9.649699999999999944e-02
3.554000000000000214e-02 4.929599999999999954e-02 5.816899999999999848e-02 -9.290099999999999747e-02 -1.455039999999999945e-01 2.274899999999999978e-01 -4.299800000000000150e-02 4.601299999999999835e-01 4.901900000000000007e-02 -8.709899999999999587e-02 5.230499999999999733e-02 -2.228159999999999863e-01 1.439040000000000041e-01 6.314699999999999480e-02 9.724399999999999711e-02 6.967199999999999782e-02 9.602700000000000125e-02 6.811300000000000687e-02 2.564100000000000060e-02 1.424529999999999963e-01 -1.372389999999999999e-01 -5.555800000000000322e-02 3.517900000000000194e-02 -3.129799999999999943e-02 -7.021499999999999964e-02 -3.902800000000000019e-02 8.115200000000000191e-02 7.005699999999999428e-02 1.416520000000000001e-01 -6.437700000000000367e-02 -7.238100000000000089e-02 -9.734700000000000297e-02 -1.536500000000000019e-02 -1.689170000000000116e-01 -1.569889999999999897e-01 8.555899999999999617e-02 1.687849999999999906e-01 1.450770000000000115e-01 -1.339559999999999917e-01 -1.453290000000000137e-01 -1.379259999999999931e-01 3.078900000000000040e-02 -1.190480000000000010e-01 7.814400000000000512e-02 9.497999999999999499e-03 2.573699999999999946e-02 6.628000000000000558e-02 7.006300000000000028e-02 1.785509999999999875e-01 1.498150000000000037e-01 2.961329999999999796e-01 -2.620400000000000160e-02 -2.829940000000000233e-01 -3.010349999999999970e-01 8.823699999999999599e-02 -7.477000000000000139e-03 1.316999999999999942e-02 -8.248199999999999976e-02 -6.719600000000000573e-02 6.016799999999999926e-02 6.597000000000000086e-02 -2.538989999999999858e-01 3.042860000000000009e-01 1.189599999999999963e-01 1.062980000000000036e-01 1.542699999999999905e-01 -7.733000000000000290e-03 -4.650800000000000073e-02 -2.258290000000000020e-01 1.872560000000000058e-01 -9.723800000000000499e-02 3.267400000000000165e-02 -5.902500000000000108e-02 -2.082150000000000112e-01 -2.156200000000000061e-01 -1.630520000000000025e-01 5.573999999999999788e-02 -1.240659999999999957e-01 -1.004570000000000046e-01 4.269599999999999784e-02 1.064780000000000032e-01 -1.409549999999999970e-01 6.670199999999999740e-02 -1.507400000000000059e-02 3.401919999999999944e-01 -1.903099999999999931e-02 1.956600000000000006e-02 1.431179999999999952e-01 -8.432900000000000118e-02 -1.712490000000000123e-01 -1.982170000000000043e-01 -1.404219999999999913e-01 1.871999999999999966e-03 -2.859300000000000036e-02 3.308799999999999936e-02 -1.080639999999999934e-01
3.889700000000000102e-02 5.547799999999999954e-02 6.513599999999999945e-02 -1.017870000000000025e-01 -1.602989999999999970e-01 2.514700000000000268e-01 -4.807000000000000162e-02 5.147530000000000161e-01 5.720000000000000084e-02 -9.536100000000000132e-02 6.001000000000000084e-02 -2.456720000000000015e-01 1.593569999999999987e-01 6.871299999999999630e-02 1.102209999999999995e-01 7.854500000000000370e-02 1.061710000000000015e-01 7.676199999999999690e-02 2.669799999999999951e-02 1.576770000000000116e-01 -1.536760000000000070e-01 -6.216200000000000198e-02 3.821200000000000291e-02 -3.501800000000000052e-02 -7.705299999999999649e-02 -4.398799999999999932e-02 8.974000000000000032e-02 7.747999999999999332e-02 1.570630000000000082e-01 -7.122299999999999465e-02 -7.972400000000000320e-02 -1.076860000000000039e-01 -1.678899999999999837e-02 -1.874159999999999993e-01 -1.743709999999999982e-01 9.468100000000000127e-02 1.866599999999999926e-01 1.624680000000000013e-01 -1.481810000000000072e-01 -1.611360000000000015e-01 -1.526770000000000072e-01 3.220800000000000052e-02 -1.323209999999999942e-01 8.868399999999999894e-02 1.044400000000000016e-02 2.725599999999999898e-02 7.146700000000000275e-02 7.711999999999999411e-02 1.979049999999999976e-01 1.666640000000000066e-01 3.279880000000000018e-01 -2.830699999999999883e-02 -3.155390000000000139e-01 -3.371790000000000065e-01 9.786200000000000454e-02 -7.865000000000000463e-03 1.444299999999999924e-02 -9.006899999999999629e-02 -7.403300000000000158e-02 6.754300000000000581e-02 7.249600000000000488e-02 -2.835429999999999895e-01 3.378599999999999937e-01 1.299500000000000099e-01 1.183450000000000057e-01 1.719710000000000127e-01 -7.908999999999999364e-03 -5.271699999999999997e-02 -2.484770000000000034e-01 2.088599999999999901e-01 -1.080409999999999981e-01 3.522000000000000131e-02 -6.505500000000000171e-02 -2.323119999999999907e-01 -2.403760000000000063e-01 -1.811270000000000102e-01 6.275100000000000122e-02 -1.385540000000000105e-01 -1.105590000000000045e-01 4.699300000000000005e-02 1.183069999999999955e-01 -1.569329999999999892e-01 7.386700000000000210e-02 -1.717399999999999829e-02 3.770290000000000030e-01 -2.186000000000000096e-02 2.043499999999999830e-02 1.591529999999999889e-01 -9.410899999999999821e-02 -1.911740000000000106e-01 -2.195229999999999959e-01 -1.548650000000000027e-01 3.727999999999999977e-03 -3.336100000000000176e-02 3.431399999999999728e-02 -1.190400000000000069e-01
4.183300000000000213e-02 6.153700000000000142e-02 7.204299999999999593e-02 -1.100040000000000046e-01 -1.741270000000000040e-01 2.741689999999999960e-01 -5.294800000000000201e-02 5.673169999999999602e-01 6.579200000000000326e-02 -1.028840000000000032e-01 6.821399999999999686e-02 -2.672800000000000176e-01 1.740299999999999903e-01 7.378300000000000136e-02 1.234399999999999942e-01 8.740499999999999658e-02 1.158290000000000014e-01 8.544400000000000606e-02 2.709900000000000156e-02 1.721640000000000115e-01 -1.697839999999999905e-01 -6.859999999999999432e-02 4.075999999999999762e-02 -3.861200000000000049e-02 -8.350499999999999590e-02 -4.895599999999999952e-02 9.779300000000000492e-02 8.448600000000000554e-02 1.716340000000000088e-01 -7.766399999999999693e-02 -8.646299999999999819e-02 -1.173980000000000024e-01 -1.812199999999999922e-02 -2.049509999999999943e-01 -1.910969999999999891e-01 1.031790000000000068e-01 2.034799999999999942e-01 1.794340000000000102e-01 -1.616279999999999939e-01 -1.763550000000000118e-01 -1.667540000000000133e-01 3.289899999999999769e-02 -1.450329999999999953e-01 9.941300000000000137e-02 1.132400000000000073e-02 2.826599999999999946e-02 7.573100000000000664e-02 8.373999999999999500e-02 2.162900000000000100e-01 1.826959999999999973e-01 3.581610000000000071e-01 -2.990299999999999903e-02 -3.467660000000000187e-01 -3.719779999999999753e-01 1.071079999999999949e-01 -8.028999999999999679e-03 1.554400000000000052e-02 -9.683700000000000641e-02 -8.030099999999999738e-02 7.478400000000000325e-02 7.866599999999999981e-02 -3.120760000000000201e-01 3.696039999999999881e-01 1.397789999999999866e-01 1.298179999999999890e-01 1.889270000000000116e-01 -7.849000000000000074e-03 -5.906499999999999945e-02 -2.695600000000000218e-01 2.299350000000000005e-01 -1.183639999999999970e-01 3.725500000000000339e-02 -7.078700000000000270e-02 -2.556350000000000011e-01 -2.642760000000000109e-01 -1.981600000000000028e-01 6.971099999999999519e-02 -1.524899999999999867e-01 -1.200520000000000059e-01 5.095399999999999929e-02 1.297649999999999915e-01 -1.722370000000000012e-01 8.058099999999999985e-02 -1.943800000000000042e-02 4.117689999999999961e-01 -2.446900000000000117e-02 2.092899999999999969e-02 1.745190000000000075e-01 -1.033270000000000022e-01 -2.103859999999999897e-01 -2.393220000000000069e-01 -1.682150000000000034e-01 6.021999999999999575e-03 -3.846900000000000319e-02 3.470999999999999780e-02 -1.294140000000000013e-01
4.432699999999999835e-02 6.743399999999999395e-02 7.891299999999999704e-02 -1.176040000000000002e-01 -1.869719999999999993e-01 2.956300000000000039e-01 -5.759000000000000230e-02 6.174190000000000511e-01 7.474200000000000288e-02 -1.096710000000000046e-01 7.691099999999999326e-02 -2.877170000000000005e-01 1.879010000000000125e-01 7.840400000000000147e-02 1.369350000000000012e-01 9.624299999999999522e-02 1.250449999999999895e-01 9.417399999999999383e-02 2.681700000000000056e-02 1.859989999999999977e-01 -1.856019999999999892e-01 -7.484000000000000374e-02 4.278599999999999764e-02 -4.206900000000000223e-02 -8.963500000000000634e-02 -5.396999999999999714e-02 1.053280000000000050e-01 9.108499999999999930e-02 1.853049999999999975e-01 -8.369999999999999662e-02 -9.256399999999999351e-02 -1.264540000000000108e-01 -1.940400000000000111e-02 -2.215090000000000114e-01 -2.072809999999999930e-01 1.109819999999999973e-01 2.191980000000000040e-01 1.959150000000000058e-01 -1.742360000000000020e-01 -1.910080000000000111e-01 -1.801699999999999968e-01 3.280899999999999789e-02 -1.571700000000000041e-01 1.103530000000000066e-01 1.210800000000000071e-02 2.871999999999999900e-02 7.904500000000000415e-02 8.993199999999999805e-02 2.336580000000000046e-01 1.978330000000000088e-01 3.865250000000000075e-01 -3.091100000000000098e-02 -3.765299999999999758e-01 -4.052109999999999879e-01 1.159629999999999966e-01 -7.948000000000000204e-03 1.647300000000000153e-02 -1.027279999999999999e-01 -8.595899999999999375e-02 8.188499999999999945e-02 8.450000000000000566e-02 -3.394139999999999935e-01 3.993749999999999800e-01 1.484040000000000081e-01 1.406449999999999922e-01 2.050369999999999970e-01 -7.550000000000000287e-03 -6.553599999999999703e-02 -2.890490000000000004e-01 2.504620000000000180e-01 -1.281819999999999904e-01 3.877099999999999991e-02 -7.633500000000000008e-02 -2.782519999999999993e-01 -2.874010000000000176e-01 -2.140350000000000030e-01 7.658800000000000330e-02 -1.657949999999999979e-01 -1.289690000000000003e-01 5.456099999999999839e-02 1.408439999999999970e-01 -1.868269999999999931e-01 8.681200000000000028e-02 -2.189999999999999933e-02 4.442559999999999842e-01 -2.668900000000000092e-02 2.103999999999999967e-02 1.891359999999999986e-01 -1.118870000000000003e-01 -2.288149999999999906e-01 -2.574569999999999914e-01 -1.803949999999999998e-01 8.779999999999999610e-03 -4.396900000000000114e-02 3.425299999999999873e-02 -1.392230000000000134e-01