7.398097015000000276e+00 0.000000000000000000e+00 0.000000000000000000e+00 1.236324840000000008e-01 7.309821551999999834e+00 0.000000000000000000e+00 1.685633800000000126e-01 7.485042899999999610e-02 7.442843260000000072e+00
7.263236985999999895e+00 0.000000000000000000e+00 0.000000000000000000e+00 -1.853360779999999874e-01 7.377093101999999902e+00 0.000000000000000000e+00 1.608758319999999964e-01 -1.687863719999999901e-01 7.219229375000000282e+00
7.381201384999999782e+00 0.000000000000000000e+00 0.000000000000000000e+00 1.233501349999999996e-01 7.293127522999999890e+00 0.000000000000000000e+00 1.681784179999999962e-01 7.467948700000000273e-02 7.425845438999999715e+00
7.362827214000000176e+00 0.000000000000000000e+00 0.000000000000000000e+00 1.230430770000000007e-01 7.274972595999999569e+00 0.000000000000000000e+00 1.677597680000000036e-01 7.449358600000000052e-02 7.407360135000000234e+00
7.380818041999999579e+00 0.000000000000000000e+00 0.000000000000000000e+00 1.233437279999999997e-01 7.292748753999999778e+00 0.000000000000000000e+00 1.681696840000000137e-01 7.467560900000000390e-02 7.425459777999999567e+00
7.551921350999999838e+00 0.000000000000000000e+00 0.000000000000000000e+00 1.174100940000000065e-01 7.150164234000000008e+00 0.000000000000000000e+00 1.518982269999999968e-01 -1.657103789999999910e-01 7.360843080000000427e+00
7.352848241000000229e+00 0.000000000000000000e+00 0.000000000000000000e+00 0.000000000000000000e+00 7.352848241000000229e+00 0.000000000000000000e+00 0.000000000000000000e+00 0.000000000000000000e+00 7.352848241000000229e+00
7.193931949000000436e+00 0.000000000000000000e+00 0.000000000000000000e+00 -1.835676209999999864e-01 7.306701660999999959e+00 0.000000000000000000e+00 1.593407719999999916e-01 -1.671758299999999975e-01 7.150344253000000094e+00
7.443654583999999907e+00 0.000000000000000000e+00 0.000000000000000000e+00 1.157268649999999982e-01 7.047657186000000351e+00 0.000000000000000000e+00 1.497205649999999999e-01 -1.633347019999999983e-01 7.255315673000000132e+00
7.536786119000000284e+00 0.000000000000000000e+00 0.000000000000000000e+00 1.171747860000000030e-01 7.135834186000000301e+00 0.000000000000000000e+00 1.515937990000000013e-01 -1.653782689999999944e-01 7.346090798999999727e+00
7.605068682999999830e+00 0.000000000000000000e+00 0.000000000000000000e+00 1.182363780000000031e-01 7.200484163999999687e+00 0.000000000000000000e+00 1.529672250000000122e-01 -1.668765809999999961e-01 7.412645681999999958e+00
7.547586468999999632e+00 0.000000000000000000e+00 0.000000000000000000e+00 1.173426989999999948e-01 7.146059965000000069e+00 0.000000000000000000e+00 1.518110360000000103e-01 -1.656152589999999869e-01 7.356617879999999943e+00
7.306911200000000051e+00 0.000000000000000000e+00 0.000000000000000000e+00 1.221086420000000033e-01 7.219723781999999979e+00 0.000000000000000000e+00 1.664857389999999937e-01 7.392785400000000118e-02 7.351105922000000348e+00
7.328358352999999603e+00 0.000000000000000000e+00 0.000000000000000000e+00 -1.869977810000000018e-01 7.443235289000000421e+00 0.000000000000000000e+00 1.623182270000000094e-01 -1.702996910000000030e-01 7.283956174000000061e+00
7.392344833000000115e+00 0.000000000000000000e+00 0.000000000000000000e+00 1.243835259999999943e-01 7.216198158000000085e+00 0.000000000000000000e+00 1.080989680000000036e-01 8.771554400000000640e-02 7.233766004999999666e+00
7.438878458999999665e+00 0.000000000000000000e+00 0.000000000000000000e+00 1.251665010000000133e-01 7.261622968000000178e+00 0.000000000000000000e+00 1.087794329999999948e-01 8.826770000000000449e-02 7.279301401999999754e+00
7.556030570999999973e+00 0.000000000000000000e+00 0.000000000000000000e+00 1.174739800000000056e-01 7.154054846000000190e+00 0.000000000000000000e+00 1.519808790000000132e-01 -1.658005469999999926e-01 7.364848328999999971e+00
7.353260470999999576e+00 0.000000000000000000e+00 0.000000000000000000e+00 1.228832029999999964e-01 7.265520006000000031e+00 0.000000000000000000e+00 1.675417929999999944e-01 7.439679400000000220e-02 7.397735529000000199e+00
7.306034686000000278e+00 0.000000000000000000e+00 0.000000000000000000e+00 1.220939949999999968e-01 7.218857726999999613e+00 0.000000000000000000e+00 1.664657679999999862e-01 7.391898600000000596e-02 7.350224105999999757e+00
7.555578489000000175e+00 0.000000000000000000e+00 0.000000000000000000e+00 1.174669519999999995e-01 7.153626816000000055e+00 0.000000000000000000e+00 1.519717859999999976e-01 -1.657906269999999960e-01 7.364407685999999842e+00
7.441410541999999850e+00 0.000000000000000000e+00 0.000000000000000000e+00 1.156919770000000014e-01 7.045532525999999685e+00 0.000000000000000000e+00 1.496754289999999987e-01 -1.632854609999999929e-01 7.253128409000000332e+00
7.355763095000000362e+00 0.000000000000000000e+00 0.000000000000000000e+00 1.229250249999999933e-01 7.267992766999999965e+00 0.000000000000000000e+00 1.675988150000000121e-01 7.442211399999999755e-02 7.400253290000000206e+00
7.372856104000000244e+00 0.000000000000000000e+00 0.000000000000000000e+00 0.000000000000000000e+00 7.372856104000000244e+00 0.000000000000000000e+00 0.000000000000000000e+00 0.000000000000000000e+00 7.372856104000000244e+00
7.374231499999999606e+00 0.000000000000000000e+00 0.000000000000000000e+00 1.232336579999999959e-01 7.286240804000000182e+00 0.000000000000000000e+00 1.680196120000000126e-01 7.460896899999999721e-02 7.418833398000000301e+00
7.318292646999999818e+00 0.000000000000000000e+00 0.000000000000000000e+00 -1.867409339999999973e-01 7.433011796999999810e+00 0.000000000000000000e+00 1.620952780000000093e-01 -1.700657799999999997e-01 7.273951454999999733e+00
7.371841164000000113e+00 0.000000000000000000e+00 0.000000000000000000e+00 0.000000000000000000e+00 7.371841164000000113e+00 0.000000000000000000e+00 0.000000000000000000e+00 0.000000000000000000e+00 7.371841164000000113e+00
7.542786074000000340e+00 0.000000000000000000e+00 0.000000000000000000e+00 1.172680670000000036e-01 7.141514948000000196e+00 0.000000000000000000e+00 1.517144810000000121e-01 -1.655099250000000022e-01 7.351938943000000393e+00
7.520941593999999952e+00 0.000000000000000000e+00 0.000000000000000000e+00 1.169284500000000032e-01 7.120832578999999996e+00 0.000000000000000000e+00 1.512751049999999930e-01 -1.650305960000000016e-01 7.330647170999999851e+00
7.482241387000000188e+00 0.000000000000000000e+00 0.000000000000000000e+00 1.163267760000000067e-01 7.084191196999999995e+00 0.000000000000000000e+00 1.504966950000000137e-01 -1.641814050000000025e-01 7.292926154999999966e+00
7.430031872999999898e+00 0.000000000000000000e+00 0.000000000000000000e+00 1.250176480000000090e-01 7.252987180999999950e+00 0.000000000000000000e+00 1.086500690000000019e-01 8.816272899999999524e-02 7.270644590999999934e+00
7.314966798999999575e+00 0.000000000000000000e+00 0.000000000000000000e+00 0.000000000000000000e+00 7.314966798999999575e+00 0.000000000000000000e+00 0.000000000000000000e+00 0.000000000000000000e+00 7.314966798999999575e+00
7.455835868000000310e+00 0.000000000000000000e+00 0.000000000000000000e+00 1.254518259999999885e-01 7.278176312000000259e+00 0.000000000000000000e+00 1.090274029999999950e-01 8.846891199999999678e-02 7.295895046000000050e+00
7.530172383000000025e+00 0.000000000000000000e+00 0.000000000000000000e+00 1.170719620000000016e-01 7.129572297000000169e+00 0.000000000000000000e+00 1.514607709999999940e-01 -1.652331449999999979e-01 7.339644404000000399e+00
7.282534736999999758e+00 0.000000000000000000e+00 0.000000000000000000e+00 0.000000000000000000e+00 7.282534736999999758e+00 0.000000000000000000e+00 0.000000000000000000e+00 0.000000000000000000e+00 7.282534736999999758e+00
7.383559867999999859e+00 0.000000000000000000e+00 0.000000000000000000e+00 1.233895480000000017e-01 7.295457864000000292e+00 0.000000000000000000e+00 1.682321559999999938e-01 7.470334900000000222e-02 7.428218186999999695e+00
7.350754002000000398e+00 0.000000000000000000e+00 0.000000000000000000e+00 -1.875692509999999924e-01 7.465982004999999866e+00 0.000000000000000000e+00 1.628142760000000078e-01 -1.708201320000000134e-01 7.306216129000000059e+00
7.289928004000000072e+00 0.000000000000000000e+00 0.000000000000000000e+00 -1.860171529999999906e-01 7.404202519000000038e+00 0.000000000000000000e+00 1.614670199999999889e-01 -1.694066300000000025e-01 7.245758672000000011e+00
7.431893978999999817e+00 0.000000000000000000e+00 0.000000000000000000e+00 1.241972779999999943e-01 7.343215243000000392e+00 0.000000000000000000e+00 1.693334330000000054e-01 7.519237099999999396e-02 7.476844639000000292e+00
7.580035925999999868e+00 0.000000000000000000e+00 0.000000000000000000e+00 1.178471930000000029e-01 7.176783132999999815e+00 0.000000000000000000e+00 1.524637189999999975e-01 -1.663272919999999877e-01 7.388246301999999766e+00
7.345530680999999618e+00 0.000000000000000000e+00 0.000000000000000000e+00 1.227540280000000011e-01 7.257882449000000236e+00 0.000000000000000000e+00 1.673656719999999931e-01 7.431858800000000487e-02 7.389958986999999979e+00
7.484338163000000321e+00 0.000000000000000000e+00 0.000000000000000000e+00 1.163593750000000010e-01 7.086176425999999751e+00 0.000000000000000000e+00 1.505388689999999918e-01 -1.642274139999999882e-01 7.294969877999999852e+00
7.248557821000000345e+00 0.000000000000000000e+00 0.000000000000000000e+00 0.000000000000000000e+00 7.248557821000000345e+00 0.000000000000000000e+00 0.000000000000000000e+00 0.000000000000000000e+00 7.248557821000000345e+00
7.271557308000000219e+00 0.000000000000000000e+00 0.000000000000000000e+00 1.215178299999999934e-01 7.184791739999999649e+00 0.000000000000000000e+00 1.656802109999999939e-01 7.357015999999999556e-02 7.315538197000000409e+00
7.416577822999999903e+00 0.000000000000000000e+00 0.000000000000000000e+00 1.239413240000000055e-01 7.328081842999999651e+00 0.000000000000000000e+00 1.689844600000000030e-01 7.503740899999999936e-02 7.461435845999999650e+00
7.272086608999999591e+00 0.000000000000000000e+00 0.000000000000000000e+00 1.215266750000000007e-01 7.185314724000000375e+00 0.000000000000000000e+00 1.656922710000000021e-01 7.357551599999999359e-02 7.316070698999999955e+00
7.406771540000000265e+00 0.000000000000000000e+00 0.000000000000000000e+00 1.237774469999999988e-01 7.318392570000000319e+00 0.000000000000000000e+00 1.687610260000000084e-01 7.493819399999999964e-02 7.451570251999999783e+00
7.601586536000000116e+00 0.000000000000000000e+00 0.000000000000000000e+00 1.181822409999999934e-01 7.197187265000000167e+00 0.000000000000000000e+00 1.528971849999999910e-01 -1.668001729999999960e-01 7.409251639999999917e+00
7.536678257000000158e+00 0.000000000000000000e+00 0.000000000000000000e+00 1.171731089999999975e-01 7.135732062999999847e+00 0.000000000000000000e+00 1.515916300000000050e-01 -1.653759029999999908e-01 7.345985666999999886e+00
7.600371963999999814e+00 0.000000000000000000e+00 0.000000000000000000e+00 1.181633579999999961e-01 7.196037308000000188e+00 0.000000000000000000e+00 1.528727549999999991e-01 -1.667735210000000079e-01 7.408067800000000425e+00
7.364395458999999811e+00 0.000000000000000000e+00 0.000000000000000000e+00 0.000000000000000000e+00 7.364395458999999811e+00 0.000000000000000000e+00 0.000000000000000000e+00 0.000000000000000000e+00 7.364395458999999811e+00
7.352398992000000355e+00 0.000000000000000000e+00 0.000000000000000000e+00 1.228688069999999966e-01 7.264668805000000340e+00 0.000000000000000000e+00 1.675221640000000012e-01 7.438807799999999637e-02 7.396868838999999696e+00
7.337849346999999689e+00 0.000000000000000000e+00 0.000000000000000000e+00 1.226256619999999964e-01 7.250292769999999720e+00 0.000000000000000000e+00 1.671906549999999936e-01 7.424087199999999942e-02 7.382231192999999969e+00
7.445748195000000180e+00 0.000000000000000000e+00 0.000000000000000000e+00 1.252820910000000121e-01 7.268329010999999618e+00 0.000000000000000000e+00 1.088798899999999931e-01 8.834921399999999536e-02 7.286023770999999982e+00
7.274517438000000169e+00 0.000000000000000000e+00 0.000000000000000000e+00 -1.856239219999999968e-01 7.388550382000000027e+00 0.000000000000000000e+00 1.611256869999999897e-01 -1.690485120000000119e-01 7.230441478999999561e+00
7.389287692999999990e+00 0.000000000000000000e+00 0.000000000000000000e+00 0.000000000000000000e+00 7.389287692999999990e+00 0.000000000000000000e+00 0.000000000000000000e+00 0.000000000000000000e+00 7.389287692999999990e+00
7.269692522999999795e+00 0.000000000000000000e+00 0.000000000000000000e+00 0.000000000000000000e+00 7.269692522999999795e+00 0.000000000000000000e+00 0.000000000000000000e+00 0.000000000000000000e+00 7.269692522999999795e+00
7.319222522999999647e+00 0.000000000000000000e+00 0.000000000000000000e+00 -1.867646619999999980e-01 7.433956249999999599e+00 0.000000000000000000e+00 1.621158739999999931e-01 -1.700873890000000055e-01 7.274875697999999780e+00
7.369381511000000273e+00 0.000000000000000000e+00 0.000000000000000000e+00 1.231526079999999967e-01 7.281448686000000059e+00 0.000000000000000000e+00 1.679091060000000024e-01 7.455989899999999893e-02 7.413954074000000283e+00
7.280489102999999851e+00 0.000000000000000000e+00 0.000000000000000000e+00 0.000000000000000000e+00 7.280489102999999851e+00 0.000000000000000000e+00 0.000000000000000000e+00 0.000000000000000000e+00 7.280489102999999851e+00
7.478132490000000132e+00 0.000000000000000000e+00 0.000000000000000000e+00 1.258269890000000002e-01 7.299941644999999646e+00 0.000000000000000000e+00 1.093534490000000053e-01 8.873347700000000504e-02 7.317713366000000441e+00
7.332707196000000316e+00 0.000000000000000000e+00 0.000000000000000000e+00 1.225397290000000000e-01 7.245211976000000220e+00 0.000000000000000000e+00 1.670734929999999896e-01 7.418884600000000273e-02 7.377057941000000341e+00
7.338859407000000168e+00 0.000000000000000000e+00 0.000000000000000000e+00 0.000000000000000000e+00 7.338859407000000168e+00 0.000000000000000000e+00 0.000000000000000000e+00 0.000000000000000000e+00 7.338859407000000168e+00
7.432268864000000086e+00 0.000000000000000000e+00 0.000000000000000000e+00 1.250552879999999867e-01 7.255170868999999634e+00 0.000000000000000000e+00 1.086827810000000061e-01 8.818927199999999911e-02 7.272833594999999818e+00
7.253643615999999739e+00 0.000000000000000000e+00 0.000000000000000000e+00 0.000000000000000000e+00 7.253643615999999739e+00 0.000000000000000000e+00 0.000000000000000000e+00 0.000000000000000000e+00 7.253643615999999739e+00
7.511899163999999907e+00 0.000000000000000000e+00 0.000000000000000000e+00 1.167878670000000035e-01 7.112271201000000431e+00 0.000000000000000000e+00 1.510932269999999966e-01 -1.648321799999999948e-01 7.321833533000000394e+00
7.424470751000000313e+00 0.000000000000000000e+00 0.000000000000000000e+00 1.249240769999999945e-01 7.247558570999999894e+00 0.000000000000000000e+00 1.085687480000000066e-01 8.809674200000000566e-02 7.265202765999999812e+00
7.494728631000000085e+00 0.000000000000000000e+00 0.000000000000000000e+00 1.165209160000000022e-01 7.096014129000000281e+00 0.000000000000000000e+00 1.507478610000000108e-01 -1.644554099999999963e-01 7.305097447999999716e+00
7.400270303000000105e+00 0.000000000000000000e+00 0.000000000000000000e+00 1.245168799999999965e-01 7.223934777000000196e+00 0.000000000000000000e+00 1.082148629999999945e-01 8.780958599999999503e-02 7.241521460000000410e+00
7.488769750000000336e+00 0.000000000000000000e+00 0.000000000000000000e+00 1.260059709999999944e-01 7.310325437000000370e+00 0.000000000000000000e+00 1.095089989999999958e-01 8.885969600000000190e-02 7.328122438000000294e+00
7.313386128000000319e+00 0.000000000000000000e+00 0.000000000000000000e+00 0.000000000000000000e+00 7.313386128000000319e+00 0.000000000000000000e+00 0.000000000000000000e+00 0.000000000000000000e+00 7.313386128000000319e+00
7.459291756999999912e+00 0.000000000000000000e+00 0.000000000000000000e+00 1.159699770000000019e-01 7.062462471999999991e+00 0.000000000000000000e+00 1.500350890000000104e-01 -1.636778249999999990e-01 7.270557195000000306e+00
7.361872495000000072e+00 0.000000000000000000e+00 0.000000000000000000e+00 1.238707990000000037e-01 7.186451921999999826e+00 0.000000000000000000e+00 1.076533679999999993e-01 8.735396800000000406e-02 7.203947353000000220e+00
7.477273097000000313e+00 0.000000000000000000e+00 0.000000000000000000e+00 1.258125280000000068e-01 7.299102729000000345e+00 0.000000000000000000e+00 1.093408820000000004e-01 8.872328000000000159e-02 7.316872408000000050e+00
7.218001111999999608e+00 0.000000000000000000e+00 0.000000000000000000e+00 1.206228309999999998e-01 7.131874586000000349e+00 0.000000000000000000e+00 1.644599499999999936e-01 7.302830400000000222e-02 7.261658073999999630e+00
7.295764605999999652e+00 0.000000000000000000e+00 0.000000000000000000e+00 1.219223670000000037e-01 7.208710190999999767e+00 0.000000000000000000e+00 1.662317670000000025e-01 7.381507800000000619e-02 7.339891909000000325e+00
7.312806425999999860e+00 0.000000000000000000e+00 0.000000000000000000e+00 -1.866009419999999919e-01 7.427439576000000265e+00 0.000000000000000000e+00 1.619737619999999934e-01 -1.699382889999999924e-01 7.268498476000000430e+00
7.337946363000000360e+00 0.000000000000000000e+00 0.000000000000000000e+00 1.226272830000000036e-01 7.250388627999999613e+00 0.000000000000000000e+00 1.671928659999999955e-01 7.424185299999999654e-02 7.382328796000000359e+00
7.509620413000000383e+00 0.000000000000000000e+00 0.000000000000000000e+00 1.263568039999999892e-01 7.330679264999999667e+00 0.000000000000000000e+00 1.098139000000000060e-01 8.910710400000000642e-02 7.348525817999999710e+00
7.345264169000000010e+00 0.000000000000000000e+00 0.000000000000000000e+00 -1.874291660000000082e-01 7.460406114999999616e+00 0.000000000000000000e+00 1.626926790000000067e-01 -1.706925559999999953e-01 7.300759558000000204e+00
7.448648928999999974e+00 0.000000000000000000e+00 0.000000000000000000e+00 1.253308979999999961e-01 7.271160625000000266e+00 0.000000000000000000e+00 1.089223079999999955e-01 8.838363300000000311e-02 7.288862278999999944e+00
7.591100617000000383e+00 0.000000000000000000e+00 0.000000000000000000e+00 1.180192159999999962e-01 7.187259189999999798e+00 0.000000000000000000e+00 1.526862730000000112e-01 -1.665700820000000082e-01 7.399031035000000145e+00
7.229719538000000334e+00 0.000000000000000000e+00 0.000000000000000000e+00 0.000000000000000000e+00 7.229719538000000334e+00 0.000000000000000000e+00 0.000000000000000000e+00 0.000000000000000000e+00 7.229719538000000334e+00
7.478108444000000077e+00 0.000000000000000000e+00 0.000000000000000000e+00 1.258265839999999913e-01 7.299918170999999845e+00 0.000000000000000000e+00 1.093530969999999963e-01 8.873319200000000240e-02 7.317689835999999559e+00
7.272004871000000037e+00 0.000000000000000000e+00 0.000000000000000000e+00 1.215253089999999980e-01 7.185233961999999863e+00 0.000000000000000000e+00 1.656904090000000107e-01 7.357468899999999867e-02 7.315988467000000384e+00
7.337804672999999944e+00 0.000000000000000000e+00 0.000000000000000000e+00 1.226249150000000010e-01 7.250248628999999667e+00 0.000000000000000000e+00 1.671896370000000021e-01 7.424042000000000141e-02 7.382186249000000089e+00
7.257830594999999718e+00 0.000000000000000000e+00 0.000000000000000000e+00 -1.851981229999999923e-01 7.371601960999999648e+00 0.000000000000000000e+00 1.607560839999999935e-01 -1.686607360000000055e-01 7.213855739999999628e+00
7.593715644999999625e+00 0.000000000000000000e+00 0.000000000000000000e+00 1.180598719999999963e-01 7.189735101000000128e+00 0.000000000000000000e+00 1.527388709999999983e-01 -1.666274630000000034e-01 7.401579897999999602e+00
7.405388331000000157e+00 0.000000000000000000e+00 0.000000000000000000e+00 1.237543319999999947e-01 7.317025865999999823e+00 0.000000000000000000e+00 1.687295099999999992e-01 7.492419899999999688e-02 7.450178676000000166e+00
7.575091870999999699e+00 0.000000000000000000e+00 0.000000000000000000e+00 1.177703269999999941e-01 7.172102098999999953e+00 0.000000000000000000e+00 1.523642749999999935e-01 -1.662188049999999973e-01 7.383427342000000060e+00
7.415037665999999916e+00 0.000000000000000000e+00 0.000000000000000000e+00 1.247653559999999939e-01 7.238350259999999814e+00 0.000000000000000000e+00 1.084308070000000040e-01 8.798481099999999611e-02 7.255972037000000263e+00
7.283320825999999748e+00 0.000000000000000000e+00 0.000000000000000000e+00 -1.858485579999999970e-01 7.397491769000000161e+00 0.000000000000000000e+00 1.613206759999999962e-01 -1.692530889999999955e-01 7.239191527000000015e+00
7.440380483000000211e+00 0.000000000000000000e+00 0.000000000000000000e+00 1.251917740000000057e-01 7.263089201999999744e+00 0.000000000000000000e+00 1.088013979999999936e-01 8.828552200000000516e-02 7.280771204999999746e+00
7.305262529000000171e+00 0.000000000000000000e+00 0.000000000000000000e+00 -1.864084440000000065e-01 7.419777423000000205e+00 0.000000000000000000e+00 1.618066700000000135e-01 -1.697629800000000078e-01 7.261000285999999804e+00
7.340545520000000046e+00 0.000000000000000000e+00 0.000000000000000000e+00 1.226707189999999975e-01 7.252956771000000025e+00 0.000000000000000000e+00 1.672520869999999937e-01 7.426815000000000500e-02 7.384943673000000430e+00
7.522571606999999716e+00 0.000000000000000000e+00 0.000000000000000000e+00 1.169537920000000009e-01 7.122375876999999633e+00 0.000000000000000000e+00 1.513078909999999999e-01 -1.650663629999999937e-01 7.332235941999999618e+00
7.357584390999999613e+00 0.000000000000000000e+00 0.000000000000000000e+00 1.229554620000000015e-01 7.269792330999999663e+00 0.000000000000000000e+00 1.676403120000000135e-01 7.444054099999999896e-02 7.402085600999999571e+00
7.368594425000000392e+00 0.000000000000000000e+00 0.000000000000000000e+00 1.239839020000000069e-01 7.193013679999999965e+00 0.000000000000000000e+00 1.077516629999999975e-01 8.743372900000000170e-02 7.210525084999999557e+00
7.452739379999999692e+00 0.000000000000000000e+00 0.000000000000000000e+00 1.253997239999999902e-01 7.275153607000000022e+00 0.000000000000000000e+00 1.089821230000000002e-01 8.843217000000000438e-02 7.292864982000000218e+00
7.397408986000000297e+00 0.000000000000000000e+00 0.000000000000000000e+00 1.236209860000000021e-01 7.309141731000000419e+00 0.000000000000000000e+00 1.685477029999999932e-01 7.484346799999999633e-02 7.442151069000000341e+00
7.329569781000000006e+00 0.000000000000000000e+00 0.000000000000000000e+00 -1.870286929999999959e-01 7.444465708000000070e+00 0.000000000000000000e+00 1.623450590000000138e-01 -1.703278430000000065e-01 7.285160262999999858e+00
7.560558149000000228e+00 0.000000000000000000e+00 0.000000000000000000e+00 1.175443709999999947e-01 7.158341561000000297e+00 0.000000000000000000e+00 1.520719460000000134e-01 -1.658998939999999922e-01 7.369261350999999571e+00
7.394638522000000158e+00 0.000000000000000000e+00 0.000000000000000000e+00 1.235746880000000020e-01 7.306404324999999922e+00 0.000000000000000000e+00 1.684845789999999954e-01 7.481543799999999800e-02 7.439363848000000168e+00
7.499588065000000192e+00 0.000000000000000000e+00 0.000000000000000000e+00 1.165964659999999958e-01 7.100615044000000431e+00 0.000000000000000000e+00 1.508456029999999948e-01 -1.645620389999999933e-01 7.309833927999999759e+00
7.248980279999999610e+00 0.000000000000000000e+00 0.000000000000000000e+00 -1.849722900000000114e-01 7.362612912000000343e+00 0.000000000000000000e+00 1.605600560000000065e-01 -1.684550680000000134e-01 7.205059048999999938e+00
7.389172148000000107e+00 0.000000000000000000e+00 0.000000000000000000e+00 1.234833369999999986e-01 7.301003177000000122e+00 0.000000000000000000e+00 1.683600299999999939e-01 7.476013099999999356e-02 7.433864412000000144e+00
7.490286174000000408e+00 0.000000000000000000e+00 0.000000000000000000e+00 1.164518489999999962e-01 7.091808007000000025e+00 0.000000000000000000e+00 1.506585059999999976e-01 -1.643579300000000132e-01 7.300767393000000105e+00
7.438569603000000363e+00 0.000000000000000000e+00 0.000000000000000000e+00 1.251613040000000010e-01 7.261321471999999666e+00 0.000000000000000000e+00 1.087749169999999987e-01 8.826403500000000457e-02 7.278999172999999878e+00
7.239601221000000031e+00 0.000000000000000000e+00 0.000000000000000000e+00 -1.847329639999999995e-01 7.353086829999999630e+00 0.000000000000000000e+00 1.603523159999999947e-01 -1.682371129999999937e-01 7.195736817000000229e+00
7.466033922000000267e+00 0.000000000000000000e+00 0.000000000000000000e+00 1.160747980000000068e-01 7.068845958999999901e+00 0.000000000000000000e+00 1.501706999999999903e-01 -1.638257670000000110e-01 7.277128771000000107e+00
7.283745620000000365e+00 0.000000000000000000e+00 0.000000000000000000e+00 1.217215130000000034e-01 7.196834617999999573e+00 0.000000000000000000e+00 1.659579180000000098e-01 7.369347599999999388e-02 7.327800228000000082e+00
7.376918708999999907e+00 0.000000000000000000e+00 0.000000000000000000e+00 1.241239660000000022e-01 7.201139611000000329e+00 0.000000000000000000e+00 1.078733899999999996e-01 8.753250199999999814e-02 7.218670797999999778e+00
7.340199787999999614e+00 0.000000000000000000e+00 0.000000000000000000e+00 1.226649409999999996e-01 7.252615164999999919e+00 0.000000000000000000e+00 1.672442090000000048e-01 7.426465200000000044e-02 7.384595850000000183e+00
7.416402945999999829e+00 0.000000000000000000e+00 0.000000000000000000e+00 1.247883280000000039e-01 7.239683008000000086e+00 0.000000000000000000e+00 1.084507720000000008e-01 8.800101100000000398e-02 7.257308028999999827e+00
7.438469636999999857e+00 0.000000000000000000e+00 0.000000000000000000e+00 1.251596219999999982e-01 7.261223887999999960e+00 0.000000000000000000e+00 1.087734550000000050e-01 8.826284900000000433e-02 7.278901351000000020e+00
7.238272034999999605e+00 0.000000000000000000e+00 0.000000000000000000e+00 0.000000000000000000e+00 7.238272034999999605e+00 0.000000000000000000e+00 0.000000000000000000e+00 0.000000000000000000e+00 7.238272034999999605e+00
7.316884295999999566e+00 0.000000000000000000e+00 0.000000000000000000e+00 1.222753069999999997e-01 7.229577876999999653e+00 0.000000000000000000e+00 1.667129729999999865e-01 7.402875700000000059e-02 7.361139338000000087e+00
7.470376058000000263e+00 0.000000000000000000e+00 0.000000000000000000e+00 1.256964789999999998e-01 7.292370034000000167e+00 0.000000000000000000e+00 1.092400260000000040e-01 8.864144200000000084e-02 7.310123321999999924e+00
7.310930162000000010e+00 0.000000000000000000e+00 0.000000000000000000e+00 -1.865530649999999901e-01 7.425533899999999576e+00 0.000000000000000000e+00 1.619322039999999963e-01 -1.698946869999999887e-01 7.266633579999999704e+00
7.354903024000000400e+00 0.000000000000000000e+00 0.000000000000000000e+00 1.229106519999999952e-01 7.267142957999999986e+00 0.000000000000000000e+00 1.675792180000000020e-01 7.441341299999999770e-02 7.399388015999999624e+00
7.533272896999999801e+00 0.000000000000000000e+00 0.000000000000000000e+00 1.171201649999999983e-01 7.132507865000000002e+00 0.000000000000000000e+00 1.515231350000000032e-01 -1.653011789999999925e-01 7.342666468000000002e+00
7.282922691999999643e+00 0.000000000000000000e+00 0.000000000000000000e+00 0.000000000000000000e+00 7.282922691999999643e+00 0.000000000000000000e+00 0.000000000000000000e+00 0.000000000000000000e+00 7.282922691999999643e+00
7.347682018999999620e+00 0.000000000000000000e+00 0.000000000000000000e+00 -1.874908630000000076e-01 7.462861868000000065e+00 0.000000000000000000e+00 1.627462329999999902e-01 -1.707487430000000084e-01 7.303162759000000115e+00
7.332069781000000397e+00 0.000000000000000000e+00 0.000000000000000000e+00 -1.870924850000000028e-01 7.447004897000000234e+00 0.000000000000000000e+00 1.624004330000000107e-01 -1.703859389999999863e-01 7.287645115000000118e+00
7.577663928999999854e+00 0.000000000000000000e+00 0.000000000000000000e+00 1.178103149999999988e-01 7.174537324000000105e+00 0.000000000000000000e+00 1.524160089999999912e-01 -1.662752429999999892e-01 7.385934320999999692e+00
7.593568346999999719e+00 0.000000000000000000e+00 0.000000000000000000e+00 1.180575819999999942e-01 7.189595638000000122e+00 0.000000000000000000e+00 1.527359090000000030e-01 -1.666242310000000115e-01 7.401436326999999871e+00
7.384129105999999609e+00 0.000000000000000000e+00 0.000000000000000000e+00 0.000000000000000000e+00 7.384129105999999609e+00 0.000000000000000000e+00 0.000000000000000000e+00 0.000000000000000000e+00 7.384129105999999609e+00
7.324294283999999600e+00 0.000000000000000000e+00 0.000000000000000000e+00 0.000000000000000000e+00 7.324294283999999600e+00 0.000000000000000000e+00 0.000000000000000000e+00 0.000000000000000000e+00 7.324294283999999600e+00
7.218254896000000365e+00 0.000000000000000000e+00 0.000000000000000000e+00 1.206270720000000019e-01 7.132125342000000146e+00 0.000000000000000000e+00 1.644657320000000034e-01 7.303087199999999668e-02 7.261913393000000383e+00
7.320852152999999696e+00 0.000000000000000000e+00 0.000000000000000000e+00 1.231805910000000059e-01 7.146409023000000360e+00 0.000000000000000000e+00 1.070535229999999977e-01 8.686723200000000256e-02 7.163806969000000358e+00
7.608657953999999890e+00 0.000000000000000000e+00 0.000000000000000000e+00 1.182921809999999962e-01 7.203882487999999640e+00 0.000000000000000000e+00 1.530394190000000099e-01 -1.669553390000000082e-01 7.416144136999999859e+00
7.558840801999999748e+00 0.000000000000000000e+00 0.000000000000000000e+00 1.175176710000000041e-01 7.156715574999999774e+00 0.000000000000000000e+00 1.520374039999999871e-01 -1.658622110000000094e-01 7.367587455999999868e+00
7.311289887000000043e+00 0.000000000000000000e+00 0.000000000000000000e+00 0.000000000000000000e+00 7.311289887000000043e+00 0.000000000000000000e+00 0.000000000000000000e+00 0.000000000000000000e+00 7.311289887000000043e+00
7.282502322000000028e+00 0.000000000000000000e+00 0.000000000000000000e+00 0.000000000000000000e+00 7.282502322000000028e+00 0.000000000000000000e+00 0.000000000000000000e+00 0.000000000000000000e+00 7.282502322000000028e+00