1.848009999999999931e+00 1.838189999999999991e+00 3.767170000000000130e+00 5.823479999999999990e+00 5.535770000000000302e+00 3.735580000000000123e+00 3.929609999999999825e+00 5.741990000000000371e+00 5.493870000000000253e+00 3.830979999999999830e+00 3.579959999999999809e+00 3.811209999999999987e+00 3.804170000000000051e+00 1.753540000000000099e+00 5.759319999999999773e+00 3.625599999999999934e-01 7.150680000000000369e+00 3.603909999999999947e+00 7.504710000000000214e+00 1.642209999999999948e+00 5.392249999999999766e+00 3.678659999999999819e+00 5.662180000000000213e+00 1.769619999999999971e+00 3.861899999999999888e+00 3.814210000000000100e+00 7.424629999999999619e+00 1.841069999999999984e+00 5.624620000000000175e+00 8.512000000000000122e-02 3.663019999999999943e+00 1.854009999999999936e+00 1.847159999999999913e+00 5.634439999999999671e+00 3.576890000000000125e+00 1.750799999999999912e+00 5.783789999999999765e+00 5.708990000000000009e+00 7.196329999999999671e+00 5.663289999999999935e+00 1.862780000000000102e+00 3.784450000000000092e+00 5.844769999999999577e+00 1.827579999999999982e+00 7.436510000000000176e+00 2.024760000000000115e+00 1.753200000000000036e-01 5.568130000000000024e+00 5.524519999999999875e+00 6.461000000000000076e-02 1.785630000000000051e+00 2.672300000000000231e-01 3.604340000000000099e+00 3.938480000000000203e+00 7.306549999999999656e+00 1.885860000000000092e+00 2.007559999999999789e+00 2.342519999999999936e+00 5.614230000000000054e+00 3.856160000000000032e+00 1.811700000000000088e+00 3.454950000000000188e+00 1.874419999999999975e+00 5.824180000000000135e+00 7.325980000000000381e+00 5.466529999999999667e+00 3.847510000000000208e+00 2.121999999999999997e-01 3.755389999999999784e+00 1.929899999999999949e-01 2.154200000000000004e-01 7.430659999999999599e+00 7.513029999999999653e+00 5.463949999999999640e+00 1.887999999999999901e+00 1.790110000000000090e+00 2.925000000000000169e-02 1.879280000000000062e+00 5.858649999999999913e+00 3.740590000000000082e+00 5.691830000000000389e+00 2.076830000000000176e+00 1.916060000000000096e+00 7.363069999999999560e+00 2.046539999999999804e+00 3.670729999999999826e+00 5.627189999999999692e+00 7.432240000000000180e+00 3.684470000000000134e+00 7.407949999999999591e+00 4.041619999999999990e+00 7.383040000000000269e+00 7.391740000000000421e+00 4.300899999999999723e-01 5.463650000000000340e+00 5.626100000000000101e+00
5.491480000000000139e+00 1.808859999999999912e+00 3.637379999999999836e+00 3.774220000000000130e+00 5.636140000000000150e+00 5.423169999999999824e+00 1.134200000000000069e-01 3.701639999999999819e+00 7.195000000000000007e-02 3.660829999999999806e+00 3.657519999999999882e+00 3.642030000000000101e+00 7.026500000000000412e+00 7.206019999999999648e+00 6.196000000000000119e-02 3.523340000000000138e+00 1.683610000000000051e+00 1.908689999999999998e+00 1.993870000000000031e+00 3.616680000000000117e+00 5.374259999999999593e+00 1.893610000000000015e+00 -1.169000000000000074e-02 5.315380000000000216e+00 1.771519999999999984e+00 1.665049999999999919e+00 7.199539999999999829e+00 3.521459999999999813e+00 5.543149999999999800e+00 1.624789999999999957e+00 5.488330000000000375e+00 5.289729999999999599e+00 3.505970000000000031e+00 3.638650000000000162e+00 3.356889999999999930e+00 7.155459999999999710e+00 1.250300000000000022e-01 3.648470000000000102e+00 3.675769999999999982e+00 1.723659999999999970e+00 5.609950000000000436e+00 3.597539999999999960e+00 1.391799999999999926e+00 7.132270000000000110e+00 1.804669999999999996e+00 4.606999999999999984e-02 5.428370000000000140e+00 5.470200000000000173e+00 7.044469999999999565e+00 7.189119999999999955e+00 3.562780000000000058e+00 5.204620000000000246e+00 3.428770000000000095e+00 1.751489999999999991e+00 5.726950000000000429e+00 -6.804999999999999938e-02 5.486790000000000056e+00 1.851720000000000033e+00 3.820059999999999789e+00 1.742169999999999996e+00 7.306519999999999904e+00 1.706159999999999899e+00 5.406089999999999840e+00 3.663940000000000197e+00 7.193220000000000169e+00 3.700639999999999930e+00 3.626920000000000144e+00 1.714400000000000091e-01 7.391000000000000347e-02 5.286349999999999660e+00 1.810699999999999976e+00 1.562000000000000020e-02 5.432190000000000296e+00 5.850000000000000339e-02 1.828170000000000073e+00 5.404110000000000191e+00 5.387400000000000411e+00 5.929000000000000242e-02 3.637560000000000127e+00 1.668849999999999945e+00 5.395909999999999762e+00 7.201459999999999972e+00 1.826880000000000059e+00 1.907229999999999981e+00 5.486200000000000188e+00 3.645259999999999945e+00 5.537510000000000154e+00 1.821350000000000025e+00 5.356969999999999565e+00 6.989410000000000345e+00 2.047120000000000051e+00 1.931699999999999973e+00 3.618180000000000174e+00 6.966120000000000090e+00 5.410929999999999573e+00 1.773220000000000018e+00
2.084350000000000147e+00 1.961829999999999963e+00 3.834130000000000038e+00 5.760189999999999699e+00 5.477339999999999876e+00 3.622090000000000032e+00 3.838369999999999838e+00 5.524460000000000370e+00 5.720850000000000435e+00 3.829349999999999810e+00 3.687980000000000036e+00 3.763220000000000010e+00 3.901060000000000194e+00 1.895739999999999981e+00 5.521670000000000300e+00 7.459679999999999644e+00 7.274560000000000137e+00 3.702020000000000088e+00 7.308300000000000018e+00 1.782529999999999948e+00 5.420270000000000366e+00 3.957079999999999931e+00 5.589050000000000296e+00 2.039159999999999862e+00 3.708889999999999798e+00 3.782799999999999940e+00 4.356000000000000150e-02 1.901750000000000052e+00 5.410459999999999603e+00 6.908000000000000251e-02 3.717369999999999841e+00 1.901389999999999914e+00 1.860570000000000057e+00 5.470390000000000086e+00 3.709919999999999884e+00 1.855790000000000051e+00 5.644580000000000375e+00 5.416150000000000020e+00 2.196000000000000035e-02 5.675489999999999924e+00 2.048540000000000028e+00 3.687330000000000219e+00 5.774029999999999774e+00 1.853029999999999955e+00 7.411129999999999995e+00 1.853429999999999911e+00 6.392000000000000459e-02 5.370650000000000368e+00 5.700739999999999696e+00 7.063419999999999810e+00 1.734930000000000083e+00 2.030000000000000138e-01 3.666560000000000041e+00 3.779739999999999878e+00 2.265600000000000114e-01 1.840200000000000058e+00 1.801719999999999988e+00 1.986429999999999918e+00 5.515620000000000189e+00 3.720800000000000107e+00 2.015060000000000073e+00 3.667619999999999880e+00 1.942919999999999980e+00 5.692040000000000433e+00 7.318349999999999689e+00 5.749749999999999694e+00 3.925419999999999909e+00 7.323760000000000048e+00 3.691500000000000004e+00 3.417799999999999727e-01 1.257900000000000129e-01 7.243310000000000137e+00 3.559700000000000086e-01 5.576100000000000279e+00 1.883790000000000076e+00 2.035010000000000208e+00 7.159209999999999852e+00 2.006390000000000118e+00 5.655940000000000190e+00 3.745559999999999778e+00 5.586669999999999803e+00 2.083400000000000141e+00 1.945300000000000029e+00 7.285730000000000040e+00 2.058699999999999974e+00 3.664460000000000051e+00 5.584660000000000402e+00 7.523299999999999876e+00 3.631769999999999943e+00 7.243039999999999701e+00 3.890210000000000168e+00 7.363279999999999603e+00 7.402099999999999902e+00 7.579489999999999839e+00 5.568060000000000009e+00 5.640859999999999985e+00
1.789120000000000044e+00 1.740990000000000038e+00 3.809019999999999850e+00 5.863389999999999880e+00 5.452980000000000160e+00 3.728250000000000064e+00 3.706199999999999939e+00 5.508539999999999992e+00 5.700099999999999945e+00 3.775459999999999816e+00 3.850359999999999783e+00 3.798690000000000122e+00 3.934149999999999814e+00 1.913280000000000092e+00 5.554619999999999891e+00 7.388749999999999929e+00 7.281480000000000175e+00 3.672390000000000043e+00 7.370090000000000252e+00 1.726939999999999920e+00 5.460950000000000415e+00 3.748470000000000191e+00 5.393769999999999953e+00 1.994529999999999914e+00 3.774189999999999934e+00 3.670879999999999921e+00 4.717999999999999972e-02 1.817010000000000014e+00 5.367189999999999905e+00 5.958000000000000101e-02 3.816910000000000025e+00 1.955940000000000012e+00 2.009759999999999991e+00 5.402549999999999741e+00 3.737420000000000186e+00 1.851769999999999916e+00 5.758930000000000327e+00 5.426919999999999966e+00 1.179199999999999970e-01 5.765780000000000349e+00 1.984280000000000044e+00 3.659069999999999823e+00 5.643169999999999575e+00 1.890609999999999902e+00 7.337830000000000297e+00 2.135600000000000165e+00 7.218359999999999665e+00 5.378049999999999997e+00 5.599709999999999965e+00 7.277330000000000076e+00 1.823309999999999986e+00 1.675899999999999890e-01 3.734710000000000196e+00 3.627670000000000172e+00 2.701999999999999957e-01 1.860919999999999908e+00 1.655650000000000066e+00 2.022370000000000001e+00 5.526340000000000252e+00 3.720279999999999809e+00 1.957910000000000039e+00 3.643990000000000062e+00 1.891499999999999959e+00 5.607059999999999711e+00 6.447999999999999565e-02 5.547320000000000029e+00 3.763409999999999922e+00 9.415999999999999370e-02 3.715430000000000010e+00 4.390899999999999803e-01 7.212360000000000326e+00 7.309599999999999653e+00 2.511099999999999999e-01 5.464039999999999786e+00 1.935670000000000002e+00 2.087720000000000020e+00 1.630300000000000082e-01 1.892470000000000097e+00 5.580199999999999605e+00 3.749870000000000037e+00 5.496500000000000163e+00 1.920849999999999946e+00 1.690250000000000030e+00 7.217559999999999754e+00 2.022850000000000037e+00 3.729709999999999859e+00 5.485409999999999897e+00 3.432000000000000051e-01 3.740139999999999798e+00 7.401720000000000077e+00 3.811580000000000190e+00 7.232669999999999710e+00 3.812999999999999723e-02 2.998100000000000209e-01 5.571360000000000312e+00 5.581620000000000026e+00
2.015559999999999796e+00 1.787479999999999958e+00 3.690189999999999859e+00 5.689829999999999721e+00 5.554630000000000400e+00 3.762300000000000200e+00 4.020859999999999879e+00 5.643690000000000317e+00 5.778209999999999624e+00 3.595990000000000020e+00 3.645960000000000090e+00 3.673000000000000043e+00 3.897040000000000060e+00 1.978529999999999900e+00 5.590709999999999624e+00 2.663800000000000057e-01 7.268550000000000288e+00 3.715250000000000163e+00 2.031699999999999895e-01 1.752220000000000111e+00 5.440380000000000216e+00 3.849990000000000023e+00 5.507329999999999615e+00 1.891049999999999898e+00 3.876339999999999897e+00 3.692169999999999952e+00 7.385250000000000092e+00 1.857150000000000079e+00 5.321430000000000327e+00 1.529000000000000081e-01 3.805159999999999876e+00 1.836570000000000036e+00 1.837890000000000024e+00 5.600310000000000343e+00 3.737929999999999975e+00 1.754000000000000004e+00 5.506099999999999994e+00 5.727170000000000094e+00 2.799999999999999755e-04 5.494040000000000035e+00 1.951529999999999987e+00 3.546759999999999913e+00 5.643959999999999866e+00 1.813560000000000061e+00 7.297369999999999912e+00 2.217970000000000219e+00 7.331800000000000317e+00 5.686350000000000016e+00 5.917609999999999815e+00 7.258140000000000036e+00 2.019940000000000069e+00 1.567199999999999982e-01 3.731759999999999966e+00 3.700229999999999908e+00 7.357560000000000322e+00 1.873699999999999921e+00 1.728660000000000085e+00 1.945489999999999942e+00 5.515559999999999796e+00 3.819770000000000110e+00 1.943219999999999947e+00 3.417839999999999989e+00 1.776729999999999920e+00 5.828140000000000320e+00 7.328529999999999767e+00 5.591400000000000148e+00 4.118350000000000399e+00 7.287349999999999994e+00 3.874319999999999986e+00 1.461000000000000076e-01 1.274999999999999918e-02 3.921000000000000180e-02 2.328300000000000092e-01 5.521749999999999936e+00 1.938320000000000043e+00 1.978350000000000053e+00 9.693999999999999839e-02 2.003629999999999800e+00 5.774510000000000254e+00 3.842449999999999921e+00 5.441320000000000157e+00 2.044729999999999936e+00 1.865839999999999943e+00 7.402709999999999901e+00 1.764629999999999921e+00 3.631429999999999936e+00 5.467159999999999798e+00 7.538470000000000226e+00 3.727559999999999985e+00 7.307159999999999656e+00 3.604680000000000106e+00 3.959999999999999978e-03 1.919999999999999832e-02 7.587430000000000341e+00 5.514330000000000176e+00 5.477500000000000036e+00
3.794509999999999827e+00 -7.693999999999999451e-02 3.659809999999999786e+00 7.552920000000000300e+00 1.625199999999999978e+00 1.669499999999999984e+00 1.956050000000000066e+00 5.262089999999999712e+00 1.273100000000000065e-01 7.751120000000000232e+00 5.343390000000000306e+00 5.692319999999999602e+00 1.982469999999999954e+00 1.748320000000000096e+00 8.988999999999999768e-02 2.036890000000000089e+00 -1.005299999999999944e-01 5.568159999999999776e+00 5.770120000000000360e+00 3.417320000000000135e+00 1.822149999999999936e+00 3.953320000000000167e+00 5.354470000000000063e+00 5.475600000000000023e+00 7.605979999999999741e+00 1.737349999999999950e+00 5.557170000000000165e+00 3.991849999999999898e+00 1.741559999999999997e+00 5.501929999999999765e+00 1.561200000000000088e-01 3.497640000000000082e+00 3.784990000000000077e+00 5.698579999999999757e+00 1.632200000000000095e+00 3.751399999999999846e+00 1.964229999999999920e+00 3.564789999999999903e+00 1.926960000000000006e+00 5.698019999999999641e+00 -2.505999999999999894e-02 1.772569999999999979e+00 1.971710000000000074e+00 5.450179999999999580e+00 3.611779999999999990e+00 2.068839999999999790e+00 3.410960000000000214e+00 5.398139999999999716e+00 3.809860000000000024e+00 1.677000000000000046e+00 1.761849999999999916e+00 5.961350000000000371e+00 3.458140000000000214e+00 5.436980000000000146e+00 3.858960000000000168e+00 3.561370000000000147e+00 3.674459999999999837e+00 2.349600000000000022e-01 1.453699999999999992e-01 1.219200000000000006e-01 3.908300000000000107e-01 3.200969999999999871e+00 7.353049999999999642e+00 7.565199999999999925e+00 2.034000000000000044e-02 3.685060000000000002e+00 5.802200000000000024e+00 5.315249999999999808e+00 3.569519999999999804e+00 1.893040000000000056e+00 5.950000000000000427e-03 1.839250000000000052e+00 5.760559999999999903e+00 -1.196900000000000047e-01 5.337200000000000166e+00 3.731869999999999798e+00 3.642329999999999846e+00 1.548299999999999954e-01 3.972510000000000208e+00 5.328260000000000218e+00 1.836459999999999981e+00 2.121699999999999975e-01 5.288039999999999630e+00 1.847110000000000030e+00 5.682970000000000077e+00 1.695429999999999993e+00 9.570000000000000381e-03 2.084369999999999834e+00 1.626640000000000086e+00 3.652550000000000185e+00 3.775129999999999875e+00 7.021600000000000286e+00 8.852999999999999758e-02 5.804529999999999745e+00 5.201349999999999696e+00 7.295480000000000409e+00
5.511350000000000193e+00 1.906029999999999891e+00 3.563349999999999795e+00 5.517079999999999984e+00 5.443200000000000038e+00 3.793130000000000113e+00 2.980000000000000010e-02 1.779090000000000060e+00 1.738620000000000054e+00 5.514330000000000176e+00 5.516200000000000436e+00 4.911999999999999700e-02 1.734410000000000007e+00 3.717919999999999892e+00 1.614999999999999991e+00 1.861289999999999889e+00 5.563519999999999577e+00 7.311510000000000176e+00 3.797829999999999817e+00 5.492709999999999759e+00 1.898060000000000080e+00 1.719230000000000036e+00 7.130999999999999839e-02 5.544900000000000162e+00 1.991999999999999882e-01 3.734160000000000146e+00 7.158960000000000434e+00 5.474599999999999689e+00 3.556340000000000057e+00 5.819580000000000197e+00 1.949419999999999931e+00 8.389999999999999888e-03 1.837839999999999918e+00 5.374390000000000001e+00 1.954129999999999923e+00 3.158400000000000096e-01 5.477229999999999599e+00 5.603000000000000341e-02 1.907980000000000009e+00 1.989770000000000039e+00 5.521989999999999732e+00 3.621210000000000040e+00 3.769390000000000018e+00 7.346269999999999634e+00 3.576459999999999972e+00 1.760059999999999958e+00 1.768299999999999983e+00 3.778220000000000134e+00 6.214000000000000079e-02 8.772000000000000630e-02 6.587999999999999412e-02 3.556360000000000188e+00 3.609080000000000066e+00 3.767339999999999911e+00 5.486290000000000333e+00 3.732950000000000212e+00 1.992110000000000047e+00 1.855369999999999964e+00 1.911110000000000086e+00 7.251450000000000173e+00 7.205309999999999881e+00 5.500799999999999912e+00 1.697510000000000074e+00 3.595650000000000013e+00 1.929319999999999924e+00 5.593650000000000233e+00 3.765229999999999855e+00 5.490560000000000329e+00 5.461719999999999686e+00 4.222999999999999671e-02 7.173589999999999911e+00 3.563600000000000101e+00 3.714640000000000164e+00 3.552589999999999915e+00 1.072400000000000020e-01 7.347640000000000171e+00 5.500569999999999737e+00 5.456470000000000375e+00 5.599129999999999718e+00 7.283319999999999794e+00 5.539889999999999759e+00 3.494000000000000217e+00 1.726979999999999960e+00 1.852959999999999940e+00 1.586999999999999869e-02 3.656829999999999803e+00 3.410250000000000004e+00 3.711790000000000145e+00 7.267820000000000391e+00 4.707999999999999685e-02 1.947950000000000070e+00 3.851119999999999877e+00 5.383720000000000283e+00 7.213680000000000092e+00 1.935510000000000064e+00 5.571959999999999802e+00
5.397509999999999586e+00 1.667699999999999960e+00 3.413190000000000168e+00 3.491060000000000052e+00 5.254400000000000404e+00 5.167930000000000135e+00 -9.039999999999999425e-03 3.692159999999999886e+00 1.152900000000000036e-01 3.601750000000000007e+00 3.535569999999999879e+00 3.710580000000000211e+00 4.687000000000000194e-02 6.996380000000000265e+00 7.086769999999999570e+00 3.675940000000000207e+00 1.760329999999999950e+00 1.788929999999999909e+00 1.605850000000000000e+00 3.443900000000000183e+00 5.311429999999999652e+00 1.929999999999999938e+00 5.915999999999999731e-02 5.297920000000000407e+00 1.737360000000000015e+00 1.796750000000000069e+00 1.213800000000000018e-01 3.598380000000000134e+00 5.483649999999999913e+00 1.744639999999999969e+00 5.316159999999999997e+00 5.357960000000000278e+00 3.643369999999999997e+00 3.464989999999999792e+00 3.802280000000000104e+00 3.692000000000000143e-02 7.168459999999999610e+00 3.535709999999999908e+00 3.585970000000000102e+00 1.815269999999999939e+00 5.558620000000000339e+00 3.553139999999999965e+00 1.687040000000000095e+00 7.203140000000000320e+00 1.735759999999999970e+00 2.404999999999999846e-02 5.318069999999999631e+00 5.245149999999999757e+00 -6.233000000000000346e-02 7.220240000000000435e+00 3.620989999999999931e+00 5.309249999999999581e+00 3.748159999999999936e+00 1.824019999999999975e+00 5.189820000000000100e+00 7.139389999999999681e+00 5.296090000000000408e+00 1.829350000000000032e+00 3.776320000000000121e+00 1.733710000000000084e+00 7.144840000000000302e+00 1.577409999999999979e+00 5.469540000000000290e+00 3.515989999999999949e+00 7.204489999999999839e+00 3.512280000000000069e+00 3.413030000000000008e+00 7.276709999999999567e+00 1.177699999999999997e-01 5.313979999999999926e+00 1.853269999999999973e+00 1.684400000000000064e-01 5.318810000000000038e+00 7.040659999999999918e+00 1.854899999999999993e+00 5.329539999999999722e+00 5.319510000000000183e+00 7.097579999999999778e+00 3.702020000000000088e+00 1.704210000000000003e+00 5.569309999999999761e+00 7.102960000000000385e+00 1.772990000000000066e+00 1.861010000000000053e+00 5.453669999999999796e+00 3.568470000000000031e+00 5.319469999999999921e+00 1.785390000000000033e+00 5.447630000000000194e+00 7.137520000000000309e+00 1.898279999999999967e+00 1.808040000000000092e+00 3.401650000000000063e+00 -1.600000000000000033e-02 5.405380000000000074e+00 1.741030000000000078e+00
3.694500000000000117e+00 5.215000000000000191e-02 3.684180000000000010e+00 1.176699999999999968e-01 1.677450000000000108e+00 1.823059999999999903e+00 1.884220000000000006e+00 5.035759999999999792e+00 1.494399999999999895e-01 7.529119999999999813e+00 5.336229999999999585e+00 5.376059999999999839e+00 2.145189999999999930e+00 2.029479999999999951e+00 2.940999999999999864e-02 1.925019999999999953e+00 -6.769999999999999629e-02 5.702069999999999972e+00 5.674940000000000317e+00 3.503350000000000186e+00 1.966560000000000086e+00 3.698710000000000164e+00 5.028229999999999755e+00 5.294480000000000075e+00 7.562850000000000072e+00 1.454590000000000050e+00 5.404539999999999900e+00 3.923529999999999962e+00 1.561369999999999925e+00 5.454869999999999663e+00 2.101600000000000135e-01 3.408900000000000041e+00 3.713080000000000158e+00 5.739749999999999908e+00 1.716739999999999933e+00 3.526279999999999859e+00 1.861769999999999925e+00 3.434450000000000003e+00 1.848060000000000036e+00 5.665289999999999715e+00 6.970889999999999809e+00 1.686739999999999906e+00 2.052740000000000009e+00 5.240260000000000140e+00 3.466940000000000133e+00 1.959070000000000089e+00 3.428809999999999913e+00 5.431070000000000064e+00 4.003149999999999764e+00 1.747540000000000093e+00 1.703980000000000050e+00 5.728679999999999772e+00 3.389219999999999899e+00 5.418009999999999771e+00 3.670199999999999907e+00 3.390699999999999825e+00 3.650949999999999918e+00 7.513749999999999929e+00 7.012640000000000207e+00 2.803999999999999895e-02 7.647780000000000022e+00 3.321279999999999788e+00 7.133770000000000167e+00 3.911600000000000077e-01 6.908730000000000260e+00 3.577700000000000102e+00 5.745490000000000208e+00 5.259100000000000108e+00 3.594320000000000181e+00 1.924670000000000103e+00 2.309999999999999987e-03 1.745139999999999914e+00 5.698599999999999888e+00 6.867420000000000080e+00 5.394289999999999807e+00 4.025520000000000209e+00 3.620369999999999866e+00 7.246959999999999624e+00 3.808289999999999953e+00 5.222039999999999793e+00 1.881340000000000012e+00 7.526049999999999685e+00 5.257789999999999964e+00 1.841010000000000035e+00 5.567400000000000126e+00 1.870819999999999927e+00 8.015999999999999515e-02 2.042380000000000084e+00 1.771109999999999962e+00 3.747570000000000068e+00 4.060290000000000177e+00 6.774919999999999831e+00 7.159900000000000375e+00 5.766890000000000072e+00 5.152059999999999640e+00 9.124000000000000166e-02
3.702679999999999971e+00 7.032549999999999635e+00 3.615650000000000031e+00 7.151000000000000412e-02 1.886810000000000098e+00 1.915710000000000024e+00 2.138380000000000170e+00 5.122270000000000323e+00 1.101199999999999957e-01 2.992400000000000060e-01 5.203669999999999796e+00 5.566340000000000288e+00 2.000659999999999883e+00 1.615390000000000104e+00 7.278900000000000148e+00 2.059480000000000199e+00 6.967600000000000016e+00 5.537580000000000169e+00 5.724549999999999805e+00 3.395290000000000141e+00 1.921689999999999898e+00 4.031119999999999592e+00 5.336179999999999701e+00 5.424170000000000158e+00 7.573900000000000077e+00 1.618440000000000101e+00 5.403590000000000337e+00 3.904180000000000206e+00 1.663890000000000091e+00 5.764750000000000263e+00 1.583400000000000085e-01 3.440420000000000034e+00 3.664499999999999869e+00 5.592220000000000191e+00 1.609669999999999934e+00 3.771399999999999864e+00 1.891669999999999963e+00 3.487610000000000099e+00 1.848880000000000079e+00 5.775599999999999845e+00 1.454699999999999882e-01 1.877040000000000042e+00 1.881490000000000107e+00 5.177889999999999660e+00 3.638380000000000170e+00 1.921440000000000037e+00 3.323389999999999844e+00 5.438060000000000116e+00 3.856869999999999798e+00 1.804340000000000055e+00 1.806070000000000064e+00 5.822969999999999757e+00 3.580799999999999983e+00 5.402020000000000266e+00 3.708040000000000003e+00 3.457289999999999974e+00 3.707489999999999952e+00 1.518700000000000050e-01 -1.159199999999999953e-01 7.141409999999999592e+00 7.724800000000000111e+00 3.495499999999999829e+00 7.118260000000000254e+00 1.565000000000000002e-01 -4.884000000000000147e-02 3.605539999999999967e+00 5.933399999999999785e+00 5.402759999999999785e+00 3.632319999999999993e+00 2.093630000000000102e+00 7.074659999999999727e+00 1.731030000000000069e+00 5.879159999999999719e+00 6.967959999999999710e+00 5.454030000000000378e+00 4.041450000000000209e+00 3.632550000000000168e+00 5.568000000000000033e-02 4.127309999999999590e+00 5.310940000000000438e+00 1.983100000000000085e+00 2.061800000000000022e-01 5.378720000000000390e+00 1.707100000000000062e+00 5.894899999999999807e+00 1.584000000000000075e+00 7.186890000000000001e+00 1.882670000000000066e+00 1.724869999999999903e+00 3.816689999999999916e+00 3.940030000000000143e+00 6.957840000000000025e+00 3.243999999999999662e-02 5.795729999999999826e+00 5.448260000000000325e+00 4.021899999999999920e-01
3.922670000000000101e+00 7.005499999999999616e+00 3.710869999999999891e+00 2.193100000000000049e-01 1.746890000000000054e+00 1.701349999999999918e+00 1.924949999999999939e+00 5.292169999999999597e+00 7.392389999999999795e+00 7.751529999999999809e+00 5.397990000000000066e+00 5.495330000000000048e+00 2.184989999999999988e+00 1.698739999999999917e+00 7.271609999999999907e+00 2.147590000000000110e+00 7.054109999999999658e+00 5.561289999999999623e+00 6.052190000000000403e+00 3.502909999999999968e+00 1.825520000000000032e+00 3.864090000000000025e+00 5.035499999999999865e+00 5.683019999999999960e+00 3.139799999999999813e-01 1.719359999999999999e+00 5.620070000000000121e+00 3.956539999999999946e+00 1.726599999999999913e+00 5.534399999999999764e+00 1.925300000000000067e-01 3.557819999999999983e+00 3.749859999999999971e+00 5.766879999999999562e+00 1.625250000000000083e+00 3.458520000000000039e+00 2.081049999999999844e+00 3.462870000000000115e+00 1.765900000000000025e+00 6.002550000000000274e+00 7.009669999999999845e+00 1.981100000000000083e+00 1.933740000000000014e+00 5.402260000000000062e+00 3.610390000000000210e+00 2.113350000000000062e+00 3.408840000000000092e+00 5.508320000000000327e+00 4.045709999999999695e+00 1.730129999999999946e+00 1.922800000000000065e+00 5.836929999999999730e+00 3.382019999999999804e+00 5.516960000000000086e+00 4.080230000000000246e+00 3.580109999999999904e+00 3.772029999999999994e+00 7.309960000000000235e+00 1.224800000000000055e-01 8.462000000000000077e-02 3.673600000000000199e-01 3.491439999999999877e+00 7.282420000000000115e+00 7.639980000000000437e+00 1.380599999999999883e-01 3.670249999999999790e+00 5.904589999999999783e+00 5.286780000000000257e+00 3.551509999999999945e+00 1.909140000000000059e+00 2.880400000000000182e-01 1.971829999999999972e+00 5.621249999999999858e+00 8.300000000000000086e-04 5.587110000000000021e+00 3.931929999999999925e+00 3.443740000000000023e+00 2.473499999999999865e-01 3.817039999999999988e+00 5.383429999999999715e+00 1.875099999999999989e+00 2.145700000000000107e-01 5.260440000000000005e+00 2.010949999999999793e+00 5.617160000000000153e+00 1.741800000000000015e+00 8.307000000000000495e-02 2.082300000000000040e+00 1.680399999999999894e+00 3.793600000000000083e+00 3.844209999999999905e+00 -6.816999999999999449e-02 7.362599999999999589e+00 5.656579999999999941e+00 5.248450000000000060e+00 2.197999999999999954e-02
3.980010000000000048e+00 7.054619999999999891e+00 3.746170000000000222e+00 7.564560000000000173e+00 1.819760000000000044e+00 1.661189999999999944e+00 1.963130000000000042e+00 4.995449999999999946e+00 1.316299999999999970e-01 7.623619999999999841e+00 5.420329999999999870e+00 5.341249999999999609e+00 2.101809999999999956e+00 1.634050000000000002e+00 7.213230000000000253e+00 2.083880000000000177e+00 6.845519999999999605e+00 5.476759999999999629e+00 5.849649999999999572e+00 3.454260000000000108e+00 1.897729999999999917e+00 3.997630000000000017e+00 5.230789999999999829e+00 5.605129999999999946e+00 1.919299999999999895e-01 1.463119999999999976e+00 5.415659999999999918e+00 3.898179999999999978e+00 1.703149999999999942e+00 5.477210000000000356e+00 7.543120000000000047e+00 3.477100000000000080e+00 3.609230000000000160e+00 5.837390000000000079e+00 1.712420000000000053e+00 3.854340000000000099e+00 2.060989999999999878e+00 3.446460000000000079e+00 2.012799999999999923e+00 5.712270000000000181e+00 1.058700000000000058e-01 1.902879999999999905e+00 2.037990000000000190e+00 5.493430000000000035e+00 3.588810000000000056e+00 1.969640000000000057e+00 3.633830000000000116e+00 5.349179999999999602e+00 3.763040000000000163e+00 1.558859999999999912e+00 2.005479999999999929e+00 5.648369999999999891e+00 3.536540000000000017e+00 5.619909999999999961e+00 3.953349999999999920e+00 3.632880000000000109e+00 3.738440000000000207e+00 3.995500000000000163e-01 6.930109999999999992e+00 7.353329999999999700e+00 7.588700000000000223e+00 3.573240000000000194e+00 7.329500000000000348e+00 7.671400000000000219e+00 7.032029999999999781e+00 3.508080000000000087e+00 5.841789999999999594e+00 5.224050000000000082e+00 3.685280000000000111e+00 2.039460000000000051e+00 6.325999999999999679e-02 1.584319999999999951e+00 5.687780000000000058e+00 -6.189999999999999669e-02 5.643309999999999604e+00 3.924310000000000187e+00 3.227809999999999846e+00 7.347319999999999851e+00 4.002880000000000216e+00 5.281380000000000408e+00 1.857830000000000092e+00 3.339699999999999891e-01 5.276950000000000252e+00 1.936579999999999968e+00 5.807809999999999917e+00 1.691670000000000007e+00 7.191360000000000419e+00 2.042359999999999953e+00 1.496199999999999974e+00 3.784330000000000194e+00 3.950829999999999842e+00 -1.340300000000000102e-01 7.345419999999999838e+00 5.857190000000000119e+00 5.555810000000000137e+00 2.272000000000000131e-01