-1.163573928999999936e+02
-1.165954471000000012e+02
-1.169588483900000000e+02
-1.167527015600000055e+02
-1.168522246299999949e+02
-1.169216035099999971e+02
-1.167511019599999997e+02
-1.169206676900000019e+02
-1.166571649499999950e+02
-1.166171010200000069e+02
-1.159275487999999967e+02
-1.165604044800000025e+02
-1.172276386900000062e+02
-1.166903418800000054e+02
-1.171008512100000019e+02
-1.163843476600000031e+02
-1.164356496399999941e+02
-1.166239853900000014e+02
-1.172448287999999934e+02
-1.164032584499999956e+02
-1.174399596699999933e+02
-1.169834876400000070e+02
-1.162647970600000065e+02
-1.168986203300000000e+02
-1.168920484700000060e+02
-1.160302589700000055e+02
-1.172278036700000001e+02
-1.165162760300000002e+02
-1.157180879499999975e+02
-1.170550323500000047e+02
-1.171308754899999940e+02
-1.168588103900000021e+02
-1.170318073300000066e+02
-1.178112964500000004e+02
-1.168913059000000061e+02
-1.165570500799999962e+02
-1.163802264800000046e+02
-1.168159293199999951e+02
-1.162417681799999940e+02
-1.165530014099999931e+02
-1.176733117600000043e+02
-1.172446343099999950e+02
-1.164897867899999966e+02
-1.164989103099999994e+02
-1.173922020199999992e+02
-1.165732926900000024e+02
-1.156541577200000006e+02
-1.164943231299999979e+02
-1.165901375400000006e+02
-1.165224480699999958e+02
-1.168928507499999938e+02
-1.166178317100000044e+02
-1.172399431599999957e+02
-1.163406043699999941e+02
-1.161615463800000043e+02
-1.167392908300000016e+02
-1.163854168799999940e+02
-1.166589292400000062e+02
-1.165004865300000034e+02
-1.163627376099999964e+02
-1.162401802800000041e+02
-1.174693104299999931e+02
-1.168622209499999940e+02
-1.163069565299999937e+02
-1.172906280400000014e+02
-1.172746025600000053e+02
-1.164942354100000017e+02
-1.168099984100000057e+02
-1.161558933400000058e+02
-1.171468799499999989e+02
-1.168149372499999998e+02
-1.173110456800000065e+02
-1.167453659499999929e+02
-1.163633176099999957e+02
-1.165839294700000011e+02
-1.170357907899999930e+02
-1.165012428900000003e+02
-1.167439964299999957e+02
-1.164658076500000021e+02
-1.159372194900000039e+02
-1.165869459200000051e+02
-1.165464761199999941e+02
-1.165997877199999948e+02
-1.167626056099999943e+02
-1.166924077399999931e+02
-1.170741272799999990e+02
-1.163918729800000023e+02
-1.168090406299999984e+02
-1.165933067499999964e+02
-1.174194985400000064e+02
-1.166870987100000008e+02
-1.167243332999999978e+02
-1.173883143700000034e+02
-1.173150603200000006e+02
-1.168537392000000068e+02
-1.173181740499999961e+02
-1.175520235700000029e+02
-1.160086645500000060e+02
-1.160419824899999952e+02
-1.168983856100000054e+02
-1.166913567299999954e+02
-1.167984679199999931e+02
-1.173981718499999971e+02
-1.171749903000000046e+02
-1.166976858499999992e+02
-1.167528269900000026e+02
-1.166415619499999963e+02
-1.161598054699999949e+02
-1.167762018899999958e+02
-1.165314608099999987e+02
-1.169686919600000010e+02
-1.167193728400000055e+02
-1.168379952500000059e+02
-1.169263668199999984e+02
-1.159806558199999955e+02
-1.163011333200000053e+02
-1.169823890800000044e+02
-1.168808540600000043e+02
-1.168550035899999955e+02
-1.165383744199999967e+02
-1.166041341800000026e+02
-1.160206453299999936e+02
-1.167414497399999931e+02
-1.167621881299999984e+02
-1.163002615000000048e+02
-1.161319882899999953e+02
-1.168679446799999937e+02
-1.158984434099999987e+02
-1.175677822100000043e+02
-1.164845845400000002e+02
-1.166947158600000023e+02
-1.171123787599999986e+02
-1.168280779600000017e+02
-1.169977961000000022e+02
-1.167403776499999992e+02
-1.165883151400000060e+02
-1.168421635199999997e+02
-1.162596022599999941e+02
-1.162507914199999988e+02
-1.163487689699999947e+02
-1.165812824399999954e+02
-1.163039091800000051e+02
-1.172181313300000056e+02
-1.164123353800000018e+02
-1.166896506100000011e+02
-1.176166051000000010e+02
-1.167920571500000051e+02
-1.164277730400000053e+02
-1.164968227800000022e+02
-1.170397656600000005e+02
-1.165498064300000038e+02
-1.164719792100000006e+02
-1.169216221599999983e+02
-1.159592855500000042e+02
-1.163809037399999937e+02
-1.170139985099999933e+02
-1.171180967100000032e+02
-1.174075060199999996e+02
-1.159253033300000055e+02
-1.166737499399999933e+02
-1.167579526499999929e+02
-1.159696203999999966e+02
-1.163008205900000007e+02
-1.167431384100000002e+02
-1.167460401900000022e+02
-1.169810739600000034e+02
-1.169596750799999967e+02
-1.163014081599999940e+02
-1.164395951900000057e+02
-1.169595058000000023e+02
-1.165961609499999980e+02
-1.162866513799999950e+02
-1.164027217099999945e+02
-1.172802750799999956e+02
-1.168175594700000062e+02
-1.170490452199999964e+02
-1.170621601299999952e+02
-1.161017257700000016e+02
-1.164393094699999978e+02
-1.164373305299999970e+02
-1.170583929999999953e+02
-1.164261333500000006e+02
-1.176103247300000021e+02
-1.162661823300000066e+02
-1.169512052399999931e+02
-1.164231793099999948e+02
-1.167363401900000071e+02
-1.162085875100000010e+02
-1.168444959699999970e+02
-1.165052285999999953e+02
-1.163564178900000030e+02
-1.164845223599999997e+02
-1.159596753200000023e+02
-1.161146789799999937e+02
-1.162658261400000015e+02
-1.169390949900000010e+02
-1.166425421600000050e+02
-1.170226890400000030e+02
-1.168214886500000063e+02
-1.163214764300000041e+02
-1.168046239899999961e+02
-1.172964326799999952e+02
-1.162161983000000021e+02
-1.167787438900000012e+02
-1.171000449699999990e+02
-1.167166355699999940e+02
-1.164863425399999954e+02
-1.169047169600000018e+02
-1.172193140600000021e+02
-1.169309769000000045e+02
-1.169375403699999936e+02
-1.171664299100000051e+02
-1.168895918399999942e+02
-1.171282375199999990e+02
-1.163124352399999992e+02
-1.165769891599999966e+02
-1.166448787100000004e+02
-1.165469659200000052e+02
-1.159685134799999986e+02
-1.162491049700000048e+02
-1.166968529899999965e+02
-1.170100309700000025e+02
-1.166008499400000034e+02
-1.162988929400000018e+02
-1.171540937599999950e+02
-1.167627070599999968e+02
-1.171824219199999959e+02
-1.172480880300000052e+02
-1.165141583200000071e+02
-1.165765684600000043e+02
-1.166126362199999988e+02
-1.164704706400000020e+02
-1.168258434600000015e+02
-1.165289465000000035e+02
-1.170536018399999989e+02
-1.170921650800000009e+02
-1.171017385300000058e+02
-1.170191955600000000e+02
-1.164682443100000029e+02
-1.174091672299999942e+02
-1.169780445100000037e+02
-1.160452380800000043e+02
-1.164975838799999934e+02
-1.172497714099999939e+02
-1.167128718299999974e+02
-1.170543115600000021e+02
-1.169982597500000026e+02
-1.168067538600000006e+02
-1.171002068199999968e+02
-1.166067760699999951e+02
-1.167787438799999933e+02
-1.165528032699999983e+02
-1.169424882400000030e+02
-1.165122679400000010e+02
-1.171675073100000048e+02
-1.167815144799999985e+02
-1.168396292900000049e+02
-1.167204410199999955e+02
-1.164697190400000011e+02
-1.174868700499999932e+02
-1.164061820699999998e+02
-1.169125877500000001e+02
-1.165584734600000019e+02
-1.168630787599999934e+02
-1.171153984500000007e+02
-1.168199253100000021e+02
-1.166146349100000066e+02
-1.171382540999999975e+02
-1.165425922000000014e+02
-1.164434404600000050e+02
-1.161465153000000043e+02
-1.167860175999999939e+02
-1.161465688699999959e+02
-1.166772244999999941e+02
-1.166740987900000022e+02
-1.167061631600000027e+02
-1.169370791799999978e+02
-1.174177800199999950e+02
-1.165746362800000071e+02
-1.167266721099999955e+02
-1.167778605099999965e+02
-1.168296543999999955e+02
-1.164749463699999978e+02
-1.167259482000000048e+02
-1.170181910700000003e+02
-1.159043217699999957e+02
-1.168261285600000008e+02
-1.172056990199999973e+02
-1.165535728800000044e+02
-1.169409033999999963e+02
-1.161574004600000052e+02
-1.169920975900000002e+02
-1.168678701000000046e+02
-1.163064197900000067e+02
-1.171041843000000000e+02
-1.165937429300000048e+02
-1.169119500299999999e+02
-1.168040847299999996e+02
-1.167332318899999990e+02
-1.172363375200000064e+02
