9.445320000000000382e-01 -1.925270000000000037e-01 -4.559059999999999779e-01 -4.136889999999999734e-01 -4.371780000000000110e-01 -1.965260000000000062e-01 4.531569999999999765e-01 -9.852140000000000342e-01 8.245900000000000452e-01 1.723250000000000060e-01 2.188569999999999960e-01 -2.016060000000000074e-01 9.911250000000000338e-01 1.220588000000000006e+00 -9.930269999999999930e-01 -8.429689999999999683e-01 3.434389999999999943e-01 8.303700000000000525e-01 -1.435569999999999902e-01 6.891869999999999941e-01 8.852860000000000174e-01 7.905020000000000380e-01 -7.802599999999999536e-01 3.371500000000000052e-01 1.818740000000000079e-01 1.487300000000000080e-02 5.794699999999999851e-02 3.214119999999999755e-01 -6.346730000000000427e-01 -3.638759999999999772e-01 4.106130000000000058e-01 -3.667999999999999733e-02 -1.257070000000000132e-01 -7.059750000000000192e-01 8.122559999999999780e-01 5.870710000000000095e-01 3.582850000000000201e-01 -6.833759999999999835e-01 1.150458999999999898e+00 -2.312079999999999969e-01 2.820829999999999727e-01 -1.313840000000000008e-01 -8.454059999999999908e-01 2.980470000000000064e-01 -2.909129999999999772e-01 -3.744270000000000098e-01 -8.375669999999999504e-01 2.341030000000000055e-01 2.041640000000000121e-01 -4.069099999999999939e-01 4.275160000000000071e-01 -6.625210000000000266e-01 8.781010000000000204e-01 -8.186620000000000008e-01 6.769199999999999662e-01 -4.589909999999999823e-01 -4.443770000000000220e-01 -1.220375999999999905e+00 -5.193750000000000311e-01 -8.798799999999999955e-01 2.044030000000000014e-01 9.971449999999999481e-01 -1.852850000000000052e-01 2.703900000000000192e-01 2.967110000000000025e-01 1.676700000000000065e-02 -1.619210000000000094e-01 -2.890539999999999776e-01 -5.056079999999999464e-01 7.665700000000000292e-02 -6.484180000000000499e-01 1.616229999999999889e-01 -1.162409999999999971e-01 -3.824679999999999747e-01 -3.406250000000000111e-01 4.977599999999999802e-01 4.997900000000000120e-01 -4.278790000000000093e-01 -9.620579999999999687e-01 -2.050710000000000033e-01 -8.351870000000000127e-01 -6.481310000000000127e-01 2.400899999999999909e-02 7.811649999999999983e-01 3.773889999999999745e-01 3.445100000000000245e-02 1.506699999999999984e-01 1.370239999999999903e+00 1.618749999999999911e-01 3.930819999999999870e-01 -4.065130000000000132e-01 2.319799999999999987e-02 5.587739999999999929e-01 -5.667550000000000088e-01 7.031530000000000280e-01 -2.001259999999999983e-01
-1.644029999999999936e-01 4.629599999999999688e-02 4.534580000000000277e-01 -3.266310000000000047e-01 -1.070502000000000065e+00 4.865399999999999725e-01 -1.191923999999999984e+00 -3.859250000000000180e-01 -4.766239999999999921e-01 2.250530000000000030e-01 5.035530000000000284e-01 -1.111970000000000042e-01 9.852800000000000447e-02 1.102236999999999911e+00 -2.034289999999999987e-01 9.063999999999999835e-02 1.385740000000000027e-01 -4.989419999999999966e-01 -5.663610000000000033e-01 -6.196399999999999825e-02 1.348500000000000046e-02 -1.395840000000000136e-01 -3.014519999999999977e-01 3.241280000000000272e-01 4.609880000000000089e-01 -4.456789999999999918e-01 3.842209999999999792e-01 1.126489999999999991e-01 1.591019999999999934e-01 4.722500000000000031e-01 -8.760949999999999571e-01 2.538710000000000133e-01 8.740799999999999681e-01 9.017799999999999427e-02 6.479800000000000004e-01 3.012980000000000103e-01 -3.124600000000000155e-01 -2.301670000000000105e-01 -1.994279999999999942e-01 4.302110000000000101e-01 -8.633999999999999453e-01 1.880429999999999879e-01 1.371988999999999903e+00 9.934140000000000192e-01 -3.690010000000000234e-01 -5.758360000000000145e-01 -2.664619999999999767e-01 -7.700439999999999507e-01 9.593300000000000438e-02 6.627910000000000190e-01 3.879500000000000171e-01 7.054240000000000510e-01 9.282150000000000123e-01 1.539800000000000058e-01 -6.651259999999999950e-01 -4.174010000000000220e-01 -1.731659999999999866e-01 -2.950769999999999782e-01 -5.736369999999999525e-01 5.987930000000000197e-01 3.344010000000000038e-01 5.579910000000000148e-01 -8.359099999999999864e-02 -2.372589999999999977e-01 5.140109999999999957e-01 -7.477789999999999715e-01 -7.447629999999999528e-01 -1.085439999999999960e+00 -5.134720000000000395e-01 1.054465999999999903e+00 3.567719999999999780e-01 -3.249540000000000206e-01 1.515920000000000045e-01 -5.409720000000000084e-01 -1.597079999999999889e-01 -9.058540000000000481e-01 4.228959999999999941e-01 -2.432850000000000013e-01 7.568040000000000322e-01 1.140499999999999986e-01 9.558200000000000029e-02 5.962239999999999762e-01 6.279400000000000259e-02 -3.483829999999999982e-01 1.539699999999999958e-01 -6.757210000000000161e-01 -7.578139999999999876e-01 8.890689999999999982e-01 6.963719999999999910e-01 1.085226000000000024e+00 -1.744100999999999901e+00 -8.940780000000000394e-01 4.689900000000000319e-02 1.127351999999999910e+00 -3.481210000000000138e-01 1.148840000000000000e-01
-6.377810000000000423e-01 -5.392749999999999488e-01 -6.485279999999999934e-01 1.483589999999999909e-01 -1.726030000000000064e-01 9.202970000000000317e-01 8.604900000000000049e-02 2.698690000000000255e-01 -9.178039999999999532e-01 5.708900000000000086e-02 5.055460000000000509e-01 2.440700000000000161e-02 6.265199999999999936e-02 -1.950989999999999946e-01 3.942640000000000033e-01 -1.472599999999999951e-02 4.067239999999999744e-01 -1.094119999999999954e-01 8.296959999999999891e-01 3.375000000000000222e-01 3.853280000000000038e-01 -1.340959999999999930e+00 -8.167339999999999600e-01 -8.554640000000000022e-01 2.156409999999999993e-01 -8.153880000000000017e-01 1.275380000000000125e-01 2.373099999999999862e-02 1.832209999999999950e-01 -3.983200000000000074e-01 2.120140000000000080e-01 -6.200839999999999685e-01 -2.035420000000000007e-01 1.005617999999999901e+00 -4.083419999999999828e-01 -3.010079999999999978e-01 5.415699999999999681e-02 -7.405100000000000571e-02 -1.853859999999999952e-01 -2.390500000000000125e-01 -8.360180000000000389e-01 -5.030609999999999804e-01 -3.809179999999999788e-01 1.357230000000000103e-01 5.244900000000000118e-01 6.894489999999999785e-01 2.606899999999999842e-02 4.114909999999999957e-01 7.104409999999999892e-01 1.752266000000000101e+00 1.140850000000000058e-01 -1.298150000000000137e-01 2.499840000000000118e-01 -2.637329999999999952e-01 -3.927939999999999765e-01 -5.153499999999999748e-02 1.599859999999999893e-01 2.760630000000000028e-01 -5.181130000000000457e-01 6.501109999999999944e-01 -2.250929999999999875e-01 1.088900000000000007e-01 -2.829619999999999913e-01 1.904180000000000039e-01 -2.425460000000000116e-01 -8.316700000000000204e-01 3.107429999999999914e-01 3.684540000000000037e-01 5.121660000000000101e-01 -5.193929999999999936e-01 -1.124999999999999915e-03 1.076208999999999971e+00 -1.475354999999999972e+00 -9.026610000000000467e-01 -2.189850000000000130e-01 4.379399999999999959e-01 1.526966000000000045e+00 -6.626469999999999860e-01 8.802300000000000402e-02 1.113750000000000018e-01 -1.120600000000000068e-01 -5.942599999999999966e-02 -1.929649999999999976e-01 5.131809999999999983e-01 -1.822419999999999873e-01 5.829239999999999977e-01 1.017700000000000028e-02 3.327260000000000217e-01 7.496400000000000285e-02 6.905299999999999772e-01 -1.274800000000000100e-01 9.049999999999999711e-02 4.318370000000000264e-01 -5.773999999999999619e-03 -3.444380000000000219e-01 -4.515120000000000244e-01
5.128650000000000153e-01 7.576519999999999921e-01 -5.015410000000000146e-01 -1.138014000000000081e+00 2.533270000000000244e-01 -2.160400000000000167e-02 1.225286000000000097e+00 -2.803599999999999842e-02 -3.087520000000000264e-01 3.156240000000000157e-01 -9.546160000000000201e-01 8.134999999999999870e-03 -6.901439999999999797e-01 -1.282000000000000084e-01 -2.026979999999999893e-01 7.791550000000000420e-01 2.493710000000000093e-01 -3.711550000000000127e-01 4.478719999999999923e-01 7.617479999999999807e-01 6.930539999999999479e-01 1.357000000000000046e-02 1.086858000000000102e+00 -8.588470000000000271e-01 -4.773709999999999898e-01 -1.831450000000000022e-01 -2.512309999999999821e-01 1.149176999999999893e+00 3.015610000000000235e-01 5.859999999999999931e-02 -3.118759999999999866e-01 -3.767780000000000018e-01 -3.144640000000000213e-01 1.596440000000000081e+00 -4.475109999999999921e-01 1.428119999999999945e-01 -4.641529999999999823e-01 2.206789999999999863e-01 -5.172909999999999453e-01 -5.847830000000000528e-01 -2.227520000000000056e-01 -3.101389999999999980e-01 5.269249999999999767e-01 3.345800000000000163e-02 5.331420000000000048e-01 -4.108109999999999817e-01 8.128910000000000302e-01 9.939729999999999954e-01 3.884770000000000167e-01 1.300729999999999942e-01 6.968199999999999394e-02 1.301879999999999982e-01 -6.208280000000000465e-01 4.784180000000000099e-01 -1.103609000000000062e+00 -2.981340000000000101e-01 7.739800000000000013e-01 -3.856970000000000121e-01 6.248100000000000181e-02 -3.661170000000000258e-01 2.168690000000000062e-01 -2.833510000000000195e-01 -4.642000000000000293e-03 -2.625790000000000068e-01 -6.023110000000000408e-01 1.933040000000000036e-01 6.396349999999999536e-01 -2.279249999999999887e-01 5.710400000000000198e-02 -1.005378000000000105e+00 7.000910000000000188e-01 6.920770000000000532e-01 -4.455770000000000008e-01 4.331530000000000102e-01 -4.472249999999999837e-01 -6.791490000000000027e-01 -5.507020000000000248e-01 -1.066639999999999949e-01 7.807680000000000176e-01 1.074019999999999975e-01 5.033180000000000431e-01 9.065010000000000012e-01 8.415169999999999595e-01 -2.599910000000000276e-01 -3.180649999999999866e-01 -6.726560000000000317e-01 4.191880000000000051e-01 -7.454100000000000170e-01 -5.579180000000000250e-01 -1.998979999999999924e-01 2.388900000000000051e-02 -5.998999999999999992e-03 -1.726650000000000129e-01 -6.306230000000000446e-01 -5.914019999999999833e-01 -4.018610000000000237e-01
-1.793009999999999882e-01 -4.799900000000000000e-02 4.210960000000000258e-01 2.325800000000000090e-01 -7.119440000000000213e-01 -4.173899999999999832e-01 -9.174240000000000173e-01 -9.603040000000000465e-01 -9.963389999999999747e-01 7.865969999999999906e-01 4.919310000000000072e-01 1.786050000000000137e-01 -2.778740000000000099e-01 -1.892719999999999958e-01 -3.644049999999999789e-01 -1.035599999999999993e-01 6.526779999999999804e-01 2.054080000000000072e-01 -5.252609999999999779e-01 1.935820000000000041e-01 3.816620000000000013e-01 -3.319819999999999993e-01 3.352499999999999925e-02 1.357150000000000023e-01 2.695589999999999931e-01 2.130009999999999959e-01 3.756600000000000217e-02 4.417300000000000115e-01 4.000409999999999799e-01 -6.168500000000000094e-01 1.129010000000000014e-01 -3.237050000000000205e-01 -2.697109999999999785e-01 1.373659999999999881e-01 4.365100000000000230e-02 9.297800000000000509e-02 1.325663000000000036e+00 -1.067755000000000010e+00 7.734550000000000036e-01 8.539710000000000356e-01 1.191149999999999987e-01 7.512590000000000101e-01 5.992469999999999741e-01 3.048719999999999763e-01 4.973750000000000115e-01 -4.842819999999999903e-01 -7.517300000000000371e-02 -6.376209999999999933e-01 -9.423249999999999682e-01 3.572310000000000207e-01 -8.325620000000000243e-01 -3.428809999999999913e-01 -5.751150000000000428e-01 -7.357390000000000319e-01 1.092660000000000020e-01 3.739599999999999869e-02 3.932550000000000212e-01 1.015465000000000062e+00 9.843699999999999672e-02 -4.530520000000000103e-01 -3.431239999999999846e-01 9.030139999999999834e-01 3.282729999999999815e-01 3.505650000000000155e-01 5.786869999999999514e-01 -2.543210000000000193e-01 -1.281905000000000072e+00 4.589639999999999831e-01 -5.902640000000000109e-01 -5.037449999999999983e-01 -2.484409999999999952e-01 -9.756199999999999595e-02 -2.072170000000000123e-01 -5.076420000000000377e-01 -2.897000000000000131e-01 -1.546339999999999937e-01 -4.749789999999999845e-01 -5.570699999999999541e-01 -4.736839999999999939e-01 -8.727719999999999922e-01 6.174669999999999881e-01 -5.568300000000000333e-02 2.269930000000000003e-01 -1.866279999999999883e-01 1.301797000000000093e+00 9.098999999999999450e-03 5.734510000000000440e-01 -2.874490000000000101e-01 -7.044699999999999573e-02 4.333859999999999935e-01 -1.589499999999999941e-02 4.851039999999999797e-01 5.618410000000000348e-01 -1.084829999999999961e-01 5.182259999999999645e-01 9.164200000000000124e-01
3.459090000000000220e-01 -8.035899999999999987e-02 -9.634800000000000308e-02 -3.603499999999999759e-02 1.734121999999999941e+00 2.419191999999999787e+00 -9.731599999999999973e-02 3.992700000000000138e-01 -7.535789999999999988e-01 1.903660000000000074e-01 -2.703160000000000007e-01 -3.667110000000000092e-01 6.771979999999999666e-01 5.246769999999999490e-01 -6.292499999999999760e-01 -2.286950000000000094e-01 1.597399999999999931e-01 -1.054520000000000041e-01 6.648800000000000543e-02 3.528339999999999810e-01 1.122989999999999960e-01 5.533500000000000224e-02 -7.308149999999999924e-01 8.130300000000000027e-02 5.906059999999999643e-01 -1.030048000000000075e+00 -4.491379999999999817e-01 -3.460509999999999975e-01 -1.211980000000000002e-01 4.905689999999999773e-01 8.049000000000000599e-02 5.240899999999999725e-02 -7.723680000000000545e-01 1.301460000000000117e-01 7.471389999999999976e-01 -9.396919999999999717e-01 3.978299999999999892e-02 -5.138300000000000090e-01 2.488470000000000126e-01 5.501999999999999946e-03 -3.413649999999999740e-01 2.287079999999999946e-01 1.889319999999999888e-01 -5.481869999999999798e-01 5.568699999999999761e-01 2.507500000000000007e-02 3.524999999999999800e-01 5.448659999999999615e-01 3.121860000000000190e-01 4.022089999999999832e-01 5.201069999999999860e-01 -9.451450000000000129e-01 5.445809999999999818e-01 5.612580000000000346e-01 3.112829999999999764e-01 -1.624140000000000028e-01 -1.622480000000000033e-01 -1.022980000000000000e+00 -2.016630999999999840e+00 -1.964426000000000005e+00 -7.633189999999999698e-01 1.349499000000000004e+00 2.506280000000000174e-01 3.864330000000000265e-01 -2.992130000000000067e-01 -1.735659999999999981e-01 2.757439999999999891e-01 -3.285520000000000107e-01 1.745929999999999982e-01 3.269409999999999816e-01 -4.151659999999999795e-01 4.105159999999999920e-01 -1.390540000000000109e-01 -3.035720000000000085e-01 1.181469000000000102e+00 6.291719999999999535e-01 -6.232140000000000457e-01 -9.427630000000000177e-01 -2.335049999999999903e-01 1.496199999999999961e-02 4.675770000000000204e-01 -9.011270000000000113e-01 1.109910000000000063e-01 -6.151100000000000317e-02 -3.357080000000000064e-01 2.356199999999999961e-01 -5.400770000000000293e-01 -5.607720000000000482e-01 4.985040000000000027e-01 2.318139999999999923e-01 4.716799999999999882e-01 4.340010000000000256e-01 -6.214560000000000084e-01 5.004410000000000247e-01 -1.281779999999999864e-01 9.796699999999999853e-02
2.062900000000000150e-02 -3.195950000000000180e-01 7.581999999999999851e-01 1.242169999999999941e-01 -4.817899999999999960e-02 -3.399090000000000167e-01 2.329050000000000009e-01 3.826649999999999774e-01 5.615930000000000089e-01 -1.402889999999999970e-01 -4.474999999999999811e-02 -4.830329999999999901e-01 6.329660000000000286e-01 -1.059700000000000052e-02 1.087887999999999966e+00 2.042750000000000121e-01 1.516609999999999903e-01 -1.069499999999999965e-02 -5.058420000000000138e-01 -1.326130000000000086e-01 -2.710179999999999811e-01 4.243419999999999970e-01 -4.233700000000000241e-01 -1.675649999999999917e-01 -9.427569999999999562e-01 2.782400000000000151e-02 5.048150000000000137e-01 2.855099999999999999e-02 6.116399999999999615e-01 -1.225136000000000003e+00 -9.238009999999999833e-01 -6.771570000000000089e-01 -9.744200000000000084e-02 9.090840000000000032e-01 -1.014248000000000038e+00 -8.499849999999999905e-01 4.663869999999999960e-01 -4.012740000000000196e-01 -4.272170000000000134e-01 -6.522099999999999564e-01 2.349960000000000104e-01 -1.836990000000000012e-01 -3.664390000000000147e-01 1.409040000000000015e-01 1.179621999999999948e+00 -4.915800000000000031e-02 2.219899999999999929e-01 -3.730870000000000020e-01 -4.245940000000000270e-01 -4.444529999999999870e-01 -4.014039999999999830e-01 9.612239999999999673e-01 -1.265169999999999906e-01 -1.100897000000000014e+00 -3.421390000000000264e-01 -1.337790000000000090e-01 -7.362579999999999680e-01 -2.351209999999999967e-01 -4.651939999999999964e-01 2.076220000000000010e-01 8.543619999999999548e-01 1.720029999999999892e-01 4.603349999999999942e-01 5.834559999999999746e-01 -8.784560000000000146e-01 -4.474440000000000084e-01 -1.833380000000000010e-01 3.911640000000000117e-01 5.586309999999999887e-01 -1.138959999999999972e-01 5.874650000000000150e-01 2.611399999999999832e-01 -7.844480000000000341e-01 1.299670000000000103e+00 7.584299999999999375e-02 1.852729999999999932e-01 -4.462300000000000294e-02 8.370099999999999763e-02 -2.640759999999999774e-01 5.890549999999999953e-01 -3.721399999999999708e-02 4.456080000000000041e-01 1.062621000000000038e+00 3.059040000000000092e-01 5.025650000000000395e-01 1.413540000000000074e-01 1.226447000000000065e+00 -4.152999999999999747e-02 3.526580000000000270e-01 -4.953060000000000240e-01 -1.004809000000000063e+00 -5.882760000000000211e-01 8.417670000000000430e-01 3.986020000000000119e-01 -6.145859999999999657e-01 -4.662009999999999765e-01
-6.368400000000000449e-02 3.844049999999999967e-01 1.436291999999999902e+00 -1.229709999999999970e-01 9.373609999999999998e-01 1.923370999999999942e+00 -6.524280000000000079e-01 -5.086559999999999970e-01 -6.717330000000000245e-01 -2.082009999999999972e-01 -7.805410000000000403e-01 -1.100346000000000046e+00 -9.986410000000000009e-01 8.706840000000000135e-01 2.073299999999999865e-01 -7.544669999999999987e-01 4.045520000000000227e-01 2.991299999999999862e-02 1.095312000000000063e+00 -5.733100000000000002e-02 4.135289999999999799e-01 2.012950000000000017e-01 -4.822690000000000032e-01 2.306090000000000084e-01 -9.095100000000000406e-02 2.923600000000000088e-01 -1.401030000000000053e-01 -9.501230000000000508e-01 -4.129780000000000117e-01 7.213650000000000340e-01 5.331460000000000088e-01 1.220549999999999968e-01 -4.081029999999999935e-01 7.896000000000000241e-03 -8.250790000000000068e-01 -8.577329999999999677e-01 3.089400000000000132e-02 -2.642900000000000110e-02 -6.702960000000000029e-01 -7.447869999999999768e-01 -1.002372999999999958e+00 -2.404880000000000073e-01 -4.272929999999999784e-01 7.088900000000000201e-01 7.447599999999999776e-01 -9.654999999999999694e-02 4.308520000000000127e-01 6.124870000000000037e-01 -2.188319999999999987e-01 1.174710000000000060e-01 -3.156180000000000097e-01 1.653820000000000012e-01 -6.159219999999999695e-01 -1.248920000000000030e-01 4.101960000000000051e-01 2.245510000000000006e-01 5.839929999999999843e-01 -2.276710000000000123e-01 -7.044650000000000079e-01 8.289309999999999734e-01 4.179800000000000182e-02 5.503700000000000259e-01 -2.544299999999999895e-01 -1.231209999999999943e-01 5.962020000000000097e-01 2.783499999999999863e-01 3.942399999999999793e-01 2.434189999999999965e-01 -1.043560999999999961e+00 6.420099999999999696e-01 -1.150130000000000041e-01 -8.269739999999999869e-01 6.090860000000000163e-01 1.094915000000000083e+00 -4.558300000000000129e-01 8.663570000000000437e-01 6.528200000000000669e-02 -5.847259999999999680e-01 9.817599999999999938e-02 3.012540000000000218e-01 -7.084089999999999554e-01 8.052240000000000508e-01 -9.847200000000000397e-02 -7.659439999999999582e-01 1.468200000000000061e-02 -6.912620000000000431e-01 6.785020000000000495e-01 7.428059999999999663e-01 -1.071469000000000005e+00 -9.842490000000000405e-01 -4.630719999999999836e-01 -2.606660000000000088e-01 5.929870000000000418e-01 -5.157070000000000265e-01 3.083020000000000205e-01 8.710189999999999877e-01
3.945420000000000038e-01 -8.917890000000000539e-01 -6.597300000000000386e-01 -1.905370000000000119e-01 2.170809999999999962e-01 -1.907169999999999976e-01 -6.709800000000000486e-02 1.583280000000000021e+00 -6.810060000000000002e-01 6.616210000000000147e-01 -9.337800000000000544e-01 2.467999999999999916e-01 -5.921739999999999782e-01 -1.126001999999999947e+00 -2.480779999999999930e-01 6.109850000000000003e-01 -5.160740000000000327e-01 -5.896059999999999635e-01 3.522839999999999860e-01 1.882510000000000017e-01 -5.057270000000000376e-01 8.573749999999999982e-01 1.331949000000000050e+00 5.404539999999999900e-01 -4.535480000000000067e-01 7.666100000000000136e-01 2.579810000000000159e-01 -2.643699999999999870e-02 1.019943000000000044e+00 3.871829999999999994e-01 -6.222069999999999546e-01 2.874849999999999905e-01 -1.566710000000000047e-01 -1.291549999999999920e-01 -6.803409999999999735e-01 6.938499999999999668e-01 3.268099999999999894e-01 -1.729920000000000069e-01 5.907379999999999853e-01 3.473060000000000036e-01 3.246000000000000187e-03 7.641649999999999832e-01 -4.072310000000000096e-01 -6.201000000000000262e-02 8.727549999999999475e-01 -2.030119999999999980e-01 3.136800000000000005e-02 1.901809999999999889e-01 -1.751943999999999946e+00 3.430199999999999916e-02 9.412570000000000103e-01 1.291210000000000135e-01 8.744300000000000683e-02 -3.102099999999999858e-01 1.396433999999999953e+00 -1.025459999999999983e-01 -6.207770000000000232e-01 -1.554099999999999926e-02 2.025929999999999953e-01 2.128460000000000074e-01 -2.489669999999999939e-01 -3.857140000000000013e-01 3.620499999999999829e-01 -8.290800000000000392e-01 7.793879999999999697e-01 3.568799999999999750e-02 -3.080100000000000060e-01 -1.034200000000000050e-02 1.967820000000000125e-01 3.917950000000000044e-01 2.553199999999999914e-01 -3.721369999999999956e-01 3.503899999999999793e-01 2.611350000000000060e-01 1.126380000000000020e-01 -5.967599999999999988e-02 -1.257980000000000098e+00 -1.235379999999999950e-01 4.370850000000000013e-01 4.003360000000000252e-01 -3.777300000000000102e-02 1.318159999999999887e-01 -3.078779999999999850e-01 -6.361200000000000188e-02 8.955769999999999564e-01 -3.085760000000000169e-01 -1.186303000000000107e+00 -8.675429999999999531e-01 -1.167472000000000065e+00 -6.377159999999999496e-01 -4.674590000000000134e-01 -1.700339999999999907e-01 4.864290000000000003e-01 -4.352299999999999919e-02 6.438009999999999566e-01 -5.081970000000000098e-01
6.535339999999999483e-01 4.231449999999999934e-01 3.617890000000000272e-01 6.829000000000000348e-02 -1.059161000000000019e+00 -8.841499999999999915e-01 -2.738769999999999816e-01 7.280429999999999957e-01 -7.034390000000000365e-01 -5.217340000000000311e-01 4.790749999999999731e-01 -6.783919999999999950e-01 1.063300000000000009e-02 1.518670000000000020e-01 5.187669999999999781e-01 5.482780000000000431e-01 -6.742800000000000182e-02 -1.259149999999999991e-01 2.656319999999999792e-01 3.187119999999999953e-01 1.034209999999999990e-01 -4.333230000000000137e-01 -6.227009999999999490e-01 1.031400000000000025e-02 -1.722800000000000026e-02 2.325359999999999927e-01 2.078730000000000022e-01 -7.436900000000000455e-02 -1.918020000000000003e-01 -9.744789999999999841e-01 -8.201659999999999506e-01 6.679329999999999989e-01 2.692749999999999866e-01 5.324799999999999672e-02 5.086180000000000145e-01 1.977599999999999844e-02 5.715249999999999497e-01 -2.306930000000000092e-01 -1.306769999999999876e-01 -5.925400000000000111e-02 6.879799999999999804e-02 -3.900200000000000194e-02 6.676279999999999992e-01 5.220449999999999813e-01 -9.759999999999999796e-04 8.355749999999999567e-01 9.096370000000000289e-01 8.516650000000000054e-01 -4.527579999999999938e-01 -4.359509999999999774e-01 -1.311140000000000083e-01 -1.583890000000000020e-01 -1.688639999999999863e-01 1.988030000000000075e-01 7.298280000000000323e-01 -1.257499999999999937e-02 7.920199999999999463e-02 -3.738199999999999856e-02 -1.517670000000000130e-01 1.252839999999999954e+00 -3.454740000000000033e-01 -7.835250000000000270e-01 1.371259000000000006e+00 -2.036070000000000102e-01 -1.641219999999999901e-01 5.735999999999999779e-03 8.651999999999999968e-03 -4.549039999999999750e-01 -1.772569999999999979e-01 -2.745070000000000010e-01 2.367630000000000012e-01 9.272400000000000087e-02 -1.902300000000000171e-02 -1.365149999999999975e-01 3.635510000000000130e-01 -2.120609999999999995e-01 -3.755000000000000091e-03 -1.346440000000000137e-01 -1.411983999999999906e+00 -2.221609999999999974e-01 1.869210000000000038e-01 1.164680000000000021e-01 -1.816109999999999947e-01 4.914069999999999827e-01 -1.303330000000000044e-01 3.633270000000000111e-01 7.774250000000000327e-01 7.306960000000000122e-01 -8.635570000000000190e-01 -1.260361999999999982e+00 -2.332339999999999969e-01 7.401839999999999531e-01 7.739200000000000246e-02 4.187159999999999771e-01 -5.995909999999999851e-01 -1.999732999999999983e+00
3.658080000000000220e-01 1.307089999999999919e-01 2.303630000000000122e-01 -1.015033999999999992e+00 1.232563000000000075e+00 4.269910000000000094e-01 6.970819999999999794e-01 4.196710000000000163e-01 2.678269999999999817e-01 -2.229160000000000030e-01 6.949999999999999581e-03 1.795219999999999871e-01 -4.003329999999999944e-01 -3.106160000000000032e-01 5.639429999999999721e-01 -1.191870000000000013e-01 -1.904730000000000034e-01 3.606999999999999963e-03 -5.490099999999999980e-01 1.384839999999999960e-01 -6.035599999999999993e-02 4.576319999999999832e-01 9.629710000000000214e-01 1.770410000000000039e-01 -9.463589999999999502e-01 -3.713750000000000107e-01 -2.254009999999999903e-01 2.474000000000000071e-03 5.495900000000000091e-02 -2.006529999999999980e-01 -6.257400000000000462e-02 -7.080689999999999484e-01 1.218550000000000050e-01 4.125670000000000170e-01 7.659829999999999695e-01 1.503956999999999988e+00 -3.617389999999999772e-01 2.550359999999999849e-01 7.266390000000000349e-01 -8.393150000000000333e-01 9.253599999999999326e-02 -9.741819999999999924e-01 7.371839999999999504e-01 -1.852959999999999885e-01 5.769410000000000371e-01 -2.065849999999999909e-01 7.416490000000000027e-01 -1.091010000000000035e-01 -1.057374000000000036e+00 -2.685250000000000137e-01 6.880799999999999417e-02 5.050919999999999854e-01 8.786800000000000166e-02 1.538410000000000055e-01 -5.006399999999999739e-01 -2.383669999999999956e-01 -7.608669999999999600e-01 1.054146000000000027e+00 -1.218541000000000096e+00 -9.861560000000000326e-01 -8.863720000000000487e-01 -6.847300000000000608e-02 4.459480000000000111e-01 3.683830000000000160e-01 -6.805390000000000050e-01 4.984480000000000022e-01 -2.409709999999999908e-01 -1.419590000000000019e-01 1.216423999999999950e+00 9.367860000000000076e-01 -1.863008999999999915e+00 -1.020529999999999937e+00 7.291750000000000176e-01 -7.467270000000000296e-01 -4.088749999999999885e-01 -2.516699999999999840e-02 8.280469999999999775e-01 -9.381300000000000194e-01 1.088569999999999954e-01 1.632600000000000023e-02 -3.395110000000000072e-01 -1.038570000000000049e-01 4.626589999999999869e-01 -1.131798999999999999e+00 4.917569999999999997e-01 3.621320000000000094e-01 -3.562210000000000099e-01 8.088399999999999757e-02 6.914719999999999756e-01 1.121319999999999956e-01 1.989329999999999987e-01 -8.020789999999999864e-01 3.459169999999999745e-01 3.906760000000000232e-01 5.440310000000000423e-01 -1.084220000000000045e-01
5.446929999999999827e-01 -5.981269999999999643e-01 9.571799999999999753e-02 5.955099999999999838e-01 -3.780410000000000159e-01 2.622889999999999944e-01 2.925039999999999862e-01 1.151605999999999908e+00 -4.125679999999999903e-01 1.617780000000000051e-01 -7.735069999999999446e-01 6.750899999999999679e-01 -6.045300000000000118e-01 3.443039999999999989e-01 1.437500000000000062e-02 3.829159999999999786e-01 4.067069999999999852e-01 9.793939999999999868e-01 -1.025371000000000032e+00 2.378170000000000006e-01 -4.047000000000000042e-01 -3.214170000000000083e-01 3.211399999999999810e-01 1.579139999999999988e-01 -9.276900000000000424e-02 7.430480000000000418e-01 5.839299999999999491e-01 -2.726399999999999935e-01 -1.140649999999999997e-01 -1.996829999999999994e-01 9.345010000000000261e-01 -3.049620000000000108e-01 7.358609999999999873e-01 -4.596000000000000085e-01 5.258000000000000174e-02 -5.032060000000000421e-01 -2.082399999999999876e-02 -3.636090000000000155e-01 4.509599999999999720e-02 2.932099999999999984e-02 -1.189469999999999972e-01 -9.600100000000000300e-02 5.106990000000000141e-01 -8.534080000000000554e-01 -2.681660000000000155e-01 -1.226259999999999989e-01 -5.072870000000000434e-01 2.573999999999999899e-02 7.743430000000000035e-01 1.428803000000000045e+00 -4.084090000000000220e-01 1.111844000000000054e+00 3.846100000000000213e-02 -2.889829999999999899e-01 -2.702700000000000102e-01 -6.673590000000000355e-01 -3.238420000000000187e-01 -2.750650000000000039e-01 -1.146400000000000023e-02 5.493200000000000166e-02 3.943139999999999978e-01 -6.624689999999999745e-01 -5.169160000000000421e-01 1.337740000000000040e-01 7.650660000000000238e-01 2.131820000000000104e-01 -3.267149999999999777e-01 6.458329999999999904e-01 -1.954720000000000069e-01 -9.955950000000000077e-01 -8.547099999999999698e-01 8.323289999999999855e-01 3.008480000000000043e-01 -7.053490000000000038e-01 -7.649110000000000076e-01 2.303550000000000042e-01 6.356669999999999821e-01 7.280290000000000372e-01 -3.417780000000000262e-01 1.632329999999999892e-01 -1.864729999999999999e-01 -9.020040000000000280e-01 -2.254300000000000054e-02 -7.259449999999999514e-01 4.710659999999999847e-01 -1.366950000000000109e-01 9.798759999999999692e-01 -5.327199999999999713e-01 7.618610000000000104e-01 -3.855230000000000046e-01 2.128899999999999890e-02 -5.591200000000000336e-02 -3.668699999999999739e-02 -3.258320000000000105e-01 -5.676700000000000079e-01 -6.662690000000000001e-01