-3.551058708536008801e+00 -2.896711900607834345e+00 -1.802985255644558693e+00 -2.896711900607834345e+00 -5.643538043705432550e+00 -2.426753489910419948e+00 -1.802985255644558693e+00 -2.426753489910419948e+00 -4.868075263477408043e+00
6.593927776426393272e+00 5.330815132452553229e+00 -3.740194324119742841e+00 5.330815132452553229e+00 3.168752307741099727e+00 4.764180039342557293e+00 -3.740194324119742841e+00 4.764180039342557293e+00 9.643001939302145331e+00
-5.234932037641847558e+00 -9.857428167580808420e-01 -2.536343747817274341e+00 -9.857428167580808420e-01 -2.881134919246536974e+00 -1.532838787725655738e+00 -2.536343747817274341e+00 -1.532838787725655738e+00 -5.756493835990315056e+00
-1.672785476248329628e+00 -2.112723811871457524e+00 -3.453033894230246315e+00 -2.112723811871457524e+00 4.636131690787465010e-01 -1.700038775639446387e+00 -3.453033894230246315e+00 -1.700038775639446387e+00 -2.669505870517909774e+00
-4.708891448708715011e+00 -3.015307056977965861e+00 -1.714227577118577095e+00 -3.015307056977965861e+00 -3.146981891337571557e+00 -3.890822592608349506e-01 -1.714227577118577095e+00 -3.890822592608349506e-01 -4.645307943069443724e+00
-6.247672950231868860e+00 -3.369555366868587143e+00 -2.445546552836553200e+00 -3.369555366868587143e+00 -5.247870928015692105e-01 4.788264208081042916e+00 -2.445546552836553200e+00 4.788264208081042916e+00 -1.596259244123528820e+00
-1.069577544387439794e+00 -7.815683622964836319e-02 -1.117871025669150198e+00 -7.815683622964836319e-02 -2.376689841677907644e+00 -2.754842389389795809e-02 -1.117871025669150198e+00 -2.754842389389795809e-02 -2.382071498115434949e+00
1.622049723239795327e+01 4.467072286118947133e+00 -5.009376837346958489e+00 4.467072286118947133e+00 1.218016481848971644e+01 5.816138546272579646e+00 -5.009376837346958489e+00 5.816138546272579646e+00 1.585586196835775752e+01
9.218822415192457598e+00 -2.360475056362617785e+00 -3.955945952126358911e+00 -2.360475056362617785e+00 1.246366226491971574e+01 5.780082115521432584e+00 -3.955945952126358911e+00 5.780082115521432584e+00 1.242287525146626059e+01
-2.640003406622852378e+00 -1.731649262660137190e+00 -3.206262155007954640e+00 -1.731649262660137190e+00 2.129755289068500090e+00 5.388770610641667069e+00 -3.206262155007954640e+00 5.388770610641667069e+00 7.802379017855735899e-02
-7.731924465490263465e+00 -2.754129793350530431e+00 -5.227198840956420733e-01 -2.754129793350530431e+00 -4.876192134761448749e+00 4.333330611083796136e+00 -5.227198840956420733e-01 4.333330611083796136e+00 -6.798279664367631092e+00
-7.656372428806513808e-01 -2.681075102677665800e+00 -1.494136530106788818e+00 -2.681075102677665800e+00 -9.106897369217651361e-01 4.783143819911607864e+00 -1.494136530106788818e+00 4.783143819911607864e+00 -1.717362984416666905e+00
3.086912973064022570e+00 -2.504058144319087464e+00 -3.493694349282331579e+00 -2.504058144319087464e+00 4.865246614041829787e+00 -2.786890529136924588e+00 -3.493694349282331579e+00 -2.786890529136924588e+00 3.370384357544608633e+00
-2.500142424560586996e+00 3.344077473553860536e+00 -4.650283806138270748e+00 3.344077473553860536e+00 -3.650956408129178765e+00 3.446321681365966949e+00 -4.650283806138270748e+00 3.446321681365966949e+00 2.469756824795325267e-01
4.060371072643273571e+00 -3.318932070967690162e+00 -9.072755372597505197e-01 -3.318932070967690162e+00 7.359546305307326897e+00 -2.640513602152397166e+00 -9.072755372597505197e-01 -2.640513602152397166e+00 6.700000759196812261e+00
-2.095176744240441202e-01 -1.421840848904497356e+00 1.824221593169639055e+00 -1.421840848904497356e+00 1.875839577783333878e+00 -1.559640153873359747e+00 1.824221593169639055e+00 -1.559640153873359747e+00 4.930055013425942434e+00
-4.077830235261340697e+00 -2.257810126456957001e+00 -4.007374926263241655e+00 -2.257810126456957001e+00 -1.914869145969032127e+00 3.399507174263350695e+00 -4.007374926263241655e+00 3.399507174263350695e+00 2.592439298783823579e-02
-9.311158045678417094e-01 -3.191411026480320157e+00 -3.517754710412037245e+00 -3.191411026480320157e+00 8.385587621864641905e-01 -1.631787490237372573e+00 -3.517754710412037245e+00 -1.631787490237372573e+00 1.051402217525937988e-01
4.475010246880861686e+00 -3.226834831620956745e+00 -2.461349152641242544e+00 -3.226834831620956745e+00 3.346984031013744865e+00 -2.665324781600116211e+00 -2.461349152641242544e+00 -2.665324781600116211e+00 4.036337552213205448e+00
-4.204095876831569711e+00 -2.510910534070622369e+00 -3.100697039418287115e+00 -2.510910534070622369e+00 4.804828646406776593e-02 2.920838937113933831e+00 -3.100697039418287115e+00 2.920838937113933831e+00 -9.304647565347493599e-01
3.555975712392438481e+00 -3.877346159686554383e+00 -2.041456273616378603e+00 -3.877346159686554383e+00 1.184613749751717648e+01 5.437082608613206247e+00 -2.041456273616378603e+00 5.437082608613206247e+00 1.152874973580558660e+01
-2.609615729610176516e+00 -3.846315881654120972e+00 -3.987141538662189788e+00 -3.846315881654120972e+00 1.385118986244715522e-01 -1.536177529850039081e+00 -3.987141538662189788e+00 -1.536177529850039081e+00 -1.963943796987016155e+00
-2.564573935071830402e+00 5.909244141830786168e-01 5.500777615174752277e-01 5.909244141830786168e-01 -3.737712613117598170e+00 -7.451481068031071686e-01 5.500777615174752277e-01 -7.451481068031071686e-01 -3.147280990322548710e+00
-2.599047673278632065e+00 -1.602453106467078614e+00 -1.546391629867863049e+00 -1.602453106467078614e+00 -2.494433420048089545e+00 -1.035501475392680115e+00 -1.546391629867863049e+00 -1.035501475392680115e+00 -5.708333652327480578e+00
-4.659554088832383312e-01 3.614501405790176758e+00 -4.973428733223459020e+00 3.614501405790176758e+00 -2.995605795811279837e+00 3.267116142799001199e+00 -4.973428733223459020e+00 3.267116142799001199e+00 -1.774934157851856820e-02
-3.685620215551835610e+00 -5.207479298169630511e-01 1.699843344712182569e+00 -5.207479298169630511e-01 -3.153210204583887677e+00 -3.975459438668550449e-01 1.699843344712182569e+00 -3.975459438668550449e-01 -9.875337298484642146e-01
-5.475742945791753691e+00 -3.777145477061497836e+00 -3.230162931829684947e+00 -3.777145477061497836e+00 -1.006792056907098498e+00 3.480282082666201759e+00 -3.230162931829684947e+00 3.480282082666201759e+00 -3.600273228524030422e+00
8.147541244093539636e-02 -3.071806828149071134e+00 -2.363397107484804582e+00 -3.071806828149071134e+00 4.049715159672855336e+00 2.992066290655750027e+00 -2.363397107484804582e+00 2.992066290655750027e+00 3.110944430780849146e+00
6.148433502660489935e+00 -2.363253542646382321e+00 -2.943038823552662553e+00 -2.363253542646382321e+00 1.253085608789397654e+01 6.212021688587602064e+00 -2.943038823552662553e+00 6.212021688587602064e+00 1.189817354315669640e+01
-6.526024674620303223e-01 -2.943122017920718925e+00 -1.062367863321995953e+00 -2.943122017920718925e+00 2.553842690891360956e+00 -1.842239758273876760e+00 -1.062367863321995953e+00 -1.842239758273876760e+00 1.716877831522700681e+00
3.102884639822041102e+00 -4.636481933895330587e-01 -2.787801264181035688e-01 -4.636481933895330587e-01 2.394206615304740604e-01 1.613784477737038592e-01 -2.787801264181035688e-01 1.613784477737038592e-01 1.248323625499433653e+00
-3.029724041550745373e+00 -2.277603385665317060e+00 -2.687948736196016597e+00 -2.277603385665317060e+00 2.579957525187323020e-01 -1.958003567189724459e+00 -2.687948736196016597e+00 -1.958003567189724459e+00 2.554406540751144039e-01
-1.848503912407365668e+00 -2.353214164768229644e+00 -3.586107575322949326e-01 -2.353214164768229644e+00 3.180376754808017514e-01 5.465187020012800545e+00 -3.586107575322949326e-01 5.465187020012800545e+00 7.738398651832432140e-01
1.616931087140374812e+00 -2.032264982544577658e-01 -4.586294828524559164e-02 -2.032264982544577658e-01 4.479651721757531568e+00 1.007003293629386009e+00 -4.586294828524559164e-02 1.007003293629386009e+00 3.022461102694608659e+00
-3.731973486436263698e+00 -6.017672635621161836e-01 -2.249886061432078144e+00 -6.017672635621161836e-01 -4.451916447304913760e+00 -3.087435306496546961e+00 -2.249886061432078144e+00 -3.087435306496546961e+00 -6.948308437157797002e+00
-2.565471452225747573e+00 5.155959441995586978e+00 -3.476320180595582343e+00 5.155959441995586978e+00 -5.668643297050857122e+00 3.404321304184419805e+00 -3.476320180595582343e+00 3.404321304184419805e+00 -3.724888862263678657e+00
5.370777534643739415e+00 3.607184283975950478e+00 -2.135063486505204278e+00 3.607184283975950478e+00 2.416229866276529581e+00 3.734779917333537202e+00 -2.135063486505204278e+00 3.734779917333537202e+00 6.200860714803819285e+00
-1.237172170713104791e+01 -1.462575109390436667e+00 -2.789811066191605349e+00 -1.462575109390436667e+00 -9.516022546687603167e+00 -2.619866083727421024e+00 -2.789811066191605349e+00 -2.619866083727421024e+00 -1.183792652663110267e+01
-6.843092147568111017e+00 -4.058273598352083233e+00 -3.413527321994751063e+00 -4.058273598352083233e+00 -3.133228485399132346e+00 5.151041447385460437e+00 -3.413527321994751063e+00 5.151041447385460437e+00 -3.118558170847638422e+00
1.203505924026689877e+00 -3.245496128450552131e+00 -2.692641081323073671e+00 -3.245496128450552131e+00 4.115539666561841337e+00 -8.827764223596681337e-01 -2.692641081323073671e+00 -8.827764223596681337e-01 -6.380950431849932714e-02
-1.885995406889773018e-01 -2.420643302024132026e+00 -2.243890696709666344e+00 -2.420643302024132026e+00 4.293912791787186656e+00 5.406785792771037436e+00 -2.243890696709666344e+00 5.406785792771037436e+00 5.328295620041088476e+00
1.023699079657945710e+01 -1.195506590990273454e-01 -8.918840960892004954e-01 -1.195506590990273454e-01 1.007087782641464102e+01 4.204775413419113983e-01 -8.918840960892004954e-01 4.204775413419113983e-01 8.500947309285059816e+00
1.028639527618106442e+01 -4.379267291326168099e+00 -3.097579571124347897e+00 -4.379267291326168099e+00 1.174389834271548949e+01 -2.260675908140783008e+00 -3.097579571124347897e+00 -2.260675908140783008e+00 1.026749504295817594e+01
-8.090058400495443891e+00 -2.892877744826751751e+00 -3.916454128091320097e+00 -2.892877744826751751e+00 -5.428523907342801103e+00 -4.834616087599876155e-01 -3.916454128091320097e+00 -4.834616087599876155e-01 -8.583712668794076350e+00
8.508451229046935183e+00 -3.949100212144832867e+00 -2.087833110225753241e+00 -3.949100212144832867e+00 7.678117206376113835e+00 -1.134488318796236683e+00 -2.087833110225753241e+00 -1.134488318796236683e+00 8.620538841964735965e+00
-6.548444016517065869e+00 -2.740309517499519565e+00 -1.145365023864855170e+00 -2.740309517499519565e+00 -5.920820185767312616e+00 -3.061274922166560941e+00 -1.145365023864855170e+00 -3.061274922166560941e+00 -8.652956447835926213e+00
-6.770261215577261460e+00 -3.156984882323123354e-01 -3.122297745275503189e+00 -3.156984882323123354e-01 -7.649791399832425176e-01 2.979809766847503649e+00 -3.122297745275503189e+00 2.979809766847503649e+00 -4.914327339377921433e+00
-1.943863206733567273e+00 -3.646151793779558226e+00 -2.191136294790012151e+00 -3.646151793779558226e+00 2.824499724802579159e+00 2.499243183421246517e+00 -2.191136294790012151e+00 2.499243183421246517e+00 -1.416378847811791353e+00
-1.058515036063593762e+01 -2.579635362506199847e+00 -3.945694032704824661e+00 -2.579635362506199847e+00 -7.518041517389926653e+00 4.033293344679648840e+00 -3.945694032704824661e+00 4.033293344679648840e+00 -5.961800795890300542e+00
-5.663258970410240956e+00 -1.326509903852623573e+00 8.483760251054739410e-02 -1.326509903852623573e+00 -2.676707128434419936e+00 -6.064721912896976486e-01 8.483760251054739410e-02 -6.064721912896976486e-01 -2.156727810226114705e+00
-4.009869124041498090e+00 -2.945692940456392073e+00 -3.448781583937137185e+00 -2.945692940456392073e+00 2.576803189541711170e+00 -2.175836497841316497e+00 -3.448781583937137185e+00 -2.175836497841316497e+00 -8.700278362649288555e-01
2.245809492597496126e-01 -2.499801486098627734e+00 -2.821548210624247766e+00 -2.499801486098627734e+00 5.296252991360042905e+00 -3.643777855692835188e-01 -2.821548210624247766e+00 -3.643777855692835188e-01 -6.682420657090986094e-01
-3.941747823539945461e+00 -1.818975738117793561e+00 -2.526901138123453627e+00 -1.818975738117793561e+00 -1.140698790376580618e+00 -2.808412540192104512e+00 -2.526901138123453627e+00 -2.808412540192104512e+00 2.670304945295119969e-01
6.912909716440942987e+00 4.699156273845544796e+00 -3.021827479217207735e+00 4.699156273845544796e+00 4.729709037853074172e+00 3.688991566689335144e+00 -3.021827479217207735e+00 3.688991566689335144e+00 5.553137075440877979e+00
-3.011607542071597532e+00 -1.002058565219099695e-01 -2.138742308606205622e+00 -1.002058565219099695e-01 -8.049029381343375533e+00 4.598459649185738796e-01 -2.138742308606205622e+00 4.598459649185738796e-01 -6.470545389961600335e+00
7.725696841017846594e+00 -2.287370355599912308e+00 6.171953675487440449e-01 -2.287370355599912308e+00 1.002716226927303644e+01 1.119181860357294944e+00 6.171953675487440449e-01 1.119181860357294944e+00 7.402543680717863950e+00
1.683304754894076938e+00 3.373823623611675426e+00 -2.722554674671688435e+00 3.373823623611675426e+00 -2.458372344102164320e+00 3.307814482126451239e+00 -2.722554674671688435e+00 3.307814482126451239e+00 2.445974938908180629e+00
-4.479635550168973523e+00 -2.235673537246552822e+00 -2.828667041899690204e+00 -2.235673537246552822e+00 2.359980807853279405e-01 -2.477449713567454026e+00 -2.828667041899690204e+00 -2.477449713567454026e+00 -3.556751774577255887e+00
6.769200941942363769e+00 -1.151424632367758383e+00 -1.248880477172025660e+00 -1.151424632367758383e+00 8.760020971834116210e+00 1.804259083318149104e+00 -1.248880477172025660e+00 1.804259083318149104e+00 8.674210884910982244e+00
-5.406167615229927392e+00 -6.206963780712021483e-01 -2.593810437646064671e+00 -6.206963780712021483e-01 -2.580832721180270628e-01 -2.627176009547170565e+00 -2.593810437646064671e+00 -2.627176009547170565e+00 -2.226512388515324403e+00
2.365890570261512504e+00 -3.445235279870786815e+00 -4.393741210132746211e+00 -3.445235279870786815e+00 2.172478530576090527e+00 -2.028807095883438993e+00 -4.393741210132746211e+00 -2.028807095883438993e+00 4.741808028487290549e+00
-2.853949983290905212e+00 7.007366253532906208e-01 -2.278997605157241646e-01 7.007366253532906208e-01 -3.404419505946445934e+00 -4.144100746029447113e-01 -2.278997605157241646e-01 -4.144100746029447113e-01 -2.792335783818301387e+00
1.935561658012810993e-01 -2.705167467395447556e+00 -2.011071473365177109e+00 -2.705167467395447556e+00 2.024918243939534346e+00 -2.249440556910019762e+00 -2.011071473365177109e+00 -2.249440556910019762e+00 3.412503196627538316e+00
1.217855426575005495e+01 -1.707982690060368403e-01 -9.578624001062395477e-02 -1.707982690060368403e-01 1.426220453385810671e+01 6.849653513360746127e-01 -9.578624001062395477e-02 6.849653513360746127e-01 9.300834138460645661e+00
-4.204225844520121491e+00 -2.442639828950916581e+00 -2.495887825366091661e+00 -2.442639828950916581e+00 4.449348768455098302e+00 4.927818969266022364e+00 -2.495887825366091661e+00 4.927818969266022364e+00 1.544462909273240259e+00
-5.419738570666062794e-01 -2.981807824290775510e+00 -2.255472867635745171e+00 -2.981807824290775510e+00 2.779305125969740331e+00 -4.188252200316832763e+00 -2.255472867635745171e+00 -4.188252200316832763e+00 1.831806146567714011e+00
2.370044851991513379e+00 -2.438500970306476834e+00 -3.754708122342385934e+00 -2.438500970306476834e+00 9.659776390113259836e+00 5.908802546478856499e+00 -3.754708122342385934e+00 5.908802546478856499e+00 6.683413193329550417e+00
2.864812730344252767e+00 -3.257278449200165404e+00 -2.149244415931345742e+00 -3.257278449200165404e+00 8.064642814747740474e+00 -1.285463680047868928e+00 -2.149244415931345742e+00 -1.285463680047868928e+00 7.249128973733778736e+00
-5.678598466038529580e+00 -1.115479584522297118e+00 -3.676787815679170457e+00 -1.115479584522297118e+00 -3.602988240846795698e+00 -3.708197643884555639e+00 -3.676787815679170457e+00 -3.708197643884555639e+00 -5.363733968468827884e-01
7.113681657636575784e-01 -1.942444545555759072e+00 4.970199609492578774e-01 -1.942444545555759072e+00 1.490608217420070103e+00 4.897664583238127700e-01 4.970199609492578774e-01 4.897664583238127700e-01 2.218531752185122219e+00
5.703605187022067646e+00 -8.997347868860509079e-01 -4.307907018381968101e+00 -8.997347868860509079e-01 1.346951218735979516e+01 3.874534922073371579e+00 -4.307907018381968101e+00 3.874534922073371579e+00 9.250237508290720001e+00
7.310648447289255891e+00 -2.212135948393573415e+00 -6.619658520542722746e-01 -2.212135948393573415e+00 1.038389379440234350e+01 -1.770259219405276641e+00 -6.619658520542722746e-01 -1.770259219405276641e+00 9.560907485676942485e+00
-5.564364638805195717e+00 -1.973852090301775997e+00 -1.243606824784880605e+00 -1.973852090301775997e+00 -1.081081130276138946e+00 -1.895369579701821072e+00 -1.243606824784880605e+00 -1.895369579701821072e+00 -4.152392290931298469e+00
1.793782638370992899e+01 -1.710303280265969894e+00 -5.967105655933150565e+00 -1.710303280265969894e+00 1.988352533630617813e+01 -3.404983666300307910e+00 -5.967105655933150565e+00 -3.404983666300307910e+00 1.733009906453493798e+01
6.589793598805834485e+00 -2.431696802627958842e+00 -3.786332267171003796e+00 -2.431696802627958842e+00 9.281013355152683886e+00 -2.537302909453064803e+00 -3.786332267171003796e+00 -2.537302909453064803e+00 6.940924085722628867e+00
-4.255073864378834392e-01 3.383028037240359165e+00 -4.111150980093387197e+00 3.383028037240359165e+00 -3.520132769546319818e+00 3.877838106881368763e+00 -4.111150980093387197e+00 3.877838106881368763e+00 8.311640203109886549e-02
1.769449192726103570e+00 -9.258815898081955709e-01 -1.539905003362655567e+00 -9.258815898081955709e-01 4.932119854370665912e+00 -1.353586811105540466e+00 -1.539905003362655567e+00 -1.353586811105540466e+00 1.928419274978214082e+00
-1.044310712446753264e+01 -2.965576465771291748e+00 -2.344252984562341435e+00 -2.965576465771291748e+00 -6.838921399419081837e+00 -2.392555195261266476e+00 -2.344252984562341435e+00 -2.392555195261266476e+00 -5.293313780695281245e+00
-1.545178125373603883e+00 2.448946056629322410e+00 -3.538025193006276936e+00 2.448946056629322410e+00 -5.764206765184694881e+00 3.170107089818543944e+00 -3.538025193006276936e+00 3.170107089818543944e+00 -3.476238144287473020e+00
-4.819225465250868978e-02 -1.112167049863766799e+00 -3.185919757350724524e+00 -1.112167049863766799e+00 3.677232389385332034e+00 -1.038285728949841058e+00 -3.185919757350724524e+00 -1.038285728949841058e+00 4.143560642761703328e+00
-9.643214821176202989e+00 -2.502605524451287256e+00 -1.961185178466260171e+00 -2.502605524451287256e+00 -4.545526698895611339e+00 4.388454504405090439e+00 -1.961185178466260171e+00 4.388454504405090439e+00 -6.196316661069342757e+00
1.489718916768428869e+01 -4.817224518845440451e-01 -2.545139715356332655e-01 -4.817224518845440451e-01 1.561919145105852458e+01 6.530062106710143865e-01 -2.545139715356332655e-01 6.530062106710143865e-01 1.419411463474397017e+01
-4.720050925052493795e+00 -2.274599003149526233e+00 -1.730168479498828127e+00 -2.274599003149526233e+00 -1.367686029485962074e+00 -2.446800793541721752e+00 -1.730168479498828127e+00 -2.446800793541721752e+00 -4.139357944629084685e+00
8.076516190252011285e+00 -3.056152046696644753e+00 -4.255654492587498616e+00 -3.056152046696644753e+00 1.179105607546120282e+01 -5.371613599689181839e+00 -4.255654492587498616e+00 -5.371613599689181839e+00 9.887432284905841584e+00
2.374941343197936927e+00 -2.200870754108152472e+00 -2.840822601014192816e+00 -2.200870754108152472e+00 3.730236731907294434e+00 -1.000665661420897301e+00 -2.840822601014192816e+00 -1.000665661420897301e+00 -7.686442640638965207e-01
6.140837885808691610e+00 3.752459376866505547e+00 -4.123990008239426963e+00 3.752459376866505547e+00 4.135333701056227440e+00 4.456948711520904993e+00 -4.123990008239426963e+00 4.456948711520904993e+00 8.063884095381911976e+00
-1.005294432678711658e+01 -2.079642942503034053e+00 -2.552047850796385298e+00 -2.079642942503034053e+00 -4.166847470901612560e+00 5.506791766997188198e+00 -2.552047850796385298e+00 5.506791766997188198e+00 -5.235525547967308846e+00
-7.707444291251858814e+00 -4.144815050286255520e+00 -2.287325372868703077e+00 -4.144815050286255520e+00 -7.471396731214869469e+00 -1.092705459891776476e+00 -2.287325372868703077e+00 -1.092705459891776476e+00 -7.386698987433784502e+00
-6.837044055721801961e+00 -3.152423972167532451e+00 -2.286149390641084356e+00 -3.152423972167532451e+00 -3.201591598084492674e+00 3.357031199236776953e+00 -2.286149390641084356e+00 3.357031199236776953e+00 -3.904362166447325144e+00
-1.115436539816940131e+00 -2.978079537207814820e+00 -2.150252789462621994e+00 -2.978079537207814820e+00 4.315702553452656964e+00 -3.314948236636892087e+00 -2.150252789462621994e+00 -3.314948236636892087e+00 1.472023386617478335e+00
4.680670512115078452e+00 3.977642303613503127e+00 -2.231903011819645677e+00 3.977642303613503127e+00 2.261522470428862785e+00 3.212955374995690949e+00 -2.231903011819645677e+00 3.212955374995690949e+00 4.731630003120811168e+00
-1.758535441040591230e-01 -4.888467725824947152e+00 -2.083865357144341512e+00 -4.888467725824947152e+00 1.206343672315900006e+00 -2.745782330858817399e+00 -2.083865357144341512e+00 -2.745782330858817399e+00 1.265861142115868976e+00
-7.977877015899828006e-01 2.827550394293987690e+00 -3.081107989255692736e+00 2.827550394293987690e+00 -2.781177014351272181e+00 4.125511280737027775e+00 -3.081107989255692736e+00 4.125511280737027775e+00 -1.076993376855845730e+00
-5.484025317687555440e-02 -1.904166868418389891e+00 -3.305266992296269191e+00 -1.904166868418389891e+00 -2.733349925872266550e-01 -2.119164612224093691e+00 -3.305266992296269191e+00 -2.119164612224093691e+00 -1.667507384119900182e+00
-2.105024015281018901e+00 -2.129465370931195700e+00 -1.590041611274227273e+00 -2.129465370931195700e+00 3.541868248980266198e+00 3.587112219130453195e+00 -1.590041611274227273e+00 3.587112219130453195e+00 9.530829153158206779e-01
-5.637594578453832384e+00 -3.279304243945194930e+00 -3.906576235814493980e+00 -3.279304243945194930e+00 -1.280728401399724214e+00 -2.990586195866902219e+00 -3.906576235814493980e+00 -2.990586195866902219e+00 -3.135922563921240691e+00
6.215364752504416224e+00 -2.944287120396095858e+00 -1.456766403914039776e+00 -2.944287120396095858e+00 8.734613581303740659e+00 -2.513912801713723333e+00 -1.456766403914039776e+00 -2.513912801713723333e+00 8.000107186888635979e+00
2.761156145543764318e+00 -1.798814693227856809e+00 -2.159244486593454582e+00 -1.798814693227856809e+00 2.177221428786913826e+00 -5.710714791521946943e-01 -2.159244486593454582e+00 -5.710714791521946943e-01 6.167715119084123954e-01
-4.438349810371796877e+00 -2.745323971310435596e+00 -3.966307359454049219e+00 -2.745323971310435596e+00 -2.015322295823581022e+00 -5.801401520858691097e-01 -3.966307359454049219e+00 -5.801401520858691097e-01 -3.720516378238014177e+00
-2.125682508639269219e+00 4.973319549419961128e+00 -3.381396705946641656e+00 4.973319549419961128e+00 -5.170225487665156550e+00 2.340263659566176990e+00 -3.381396705946641656e+00 2.340263659566176990e+00 -2.944381786442964444e+00
-7.245046550655212414e+00 -2.725690317784770667e+00 -2.746189826227993791e+00 -2.725690317784770667e+00 -1.423885650275053205e+00 3.389329231375664886e+00 -2.746189826227993791e+00 3.389329231375664886e+00 -1.311074876306628889e+00
-5.642104371514653494e+00 -1.773660067298301612e+00 -3.342072105711483943e+00 -1.773660067298301612e+00 -5.190691668250112301e+00 -2.425295904234896771e-01 -3.342072105711483943e+00 -2.425295904234896771e-01 -7.416065480962513945e+00
-1.869082572884304128e+00 -1.405475730345285612e+00 -2.637780998214227068e+00 -1.405475730345285612e+00 4.209988814505716270e+00 5.461414845881150448e+00 -2.637780998214227068e+00 5.461414845881150448e+00 3.078153804995609200e+00
7.645115736247109162e+00 4.138688319178039698e+00 -3.084694536113922858e+00 4.138688319178039698e+00 3.669533530431098534e+00 3.889491690045999928e+00 -3.084694536113922858e+00 3.889491690045999928e+00 9.083349859441611329e+00
-5.849816040124225403e+00 -3.166741200640032616e+00 -3.032776444616229305e+00 -3.166741200640032616e+00 -3.699639027658017998e+00 -7.871177225043264336e-01 -3.032776444616229305e+00 -7.871177225043264336e-01 -5.539956678338120000e+00
1.917634711810111359e+00 -3.684236979237637932e+00 -2.977548629547384085e+00 -3.684236979237637932e+00 9.137741248039882080e+00 3.540492801571445192e+00 -2.977548629547384085e+00 3.540492801571445192e+00 6.536776464126092812e+00
-5.055684616217558380e-01 -1.142543693158294404e+00 -2.152559159533310673e+00 -1.142543693158294404e+00 3.478050013435725063e+00 -3.668508726640379969e+00 -2.152559159533310673e+00 -3.668508726640379969e+00 2.528561316560570926e+00
1.208871807498809048e+01 4.634323507949386745e+00 -2.463399437807947123e+00 4.634323507949386745e+00 1.061350246409915421e+01 3.832323400594035867e+00 -2.463399437807947123e+00 3.832323400594035867e+00 1.150920648445317518e+01
7.695260893418296000e+00 -2.719752561933804991e+00 -3.837002855052440875e+00 -2.719752561933804991e+00 7.291021681369013407e+00 3.221206610937586756e+00 -3.837002855052440875e+00 3.221206610937586756e+00 9.477474574549548336e+00
8.780150042939283139e+00 -3.531781413893265942e+00 -5.189147857775107120e+00 -3.531781413893265942e+00 1.028765803861823613e+01 -1.955002305938274176e+00 -5.189147857775107120e+00 -1.955002305938274176e+00 9.672458252855891558e+00
6.986598707126781882e+00 -3.681043409757454477e+00 -2.535924578464024748e+00 -3.681043409757454477e+00 9.061086637896794471e+00 -1.494135464971363625e+00 -2.535924578464024748e+00 -1.494135464971363625e+00 9.069612081582663521e+00
3.097861082267380439e+00 -4.131814612021420530e+00 -2.917201142998274044e+00 -4.131814612021420530e+00 5.411529258703717815e-01 -1.220696154814532086e+00 -2.917201142998274044e+00 -1.220696154814532086e+00 -5.376760538387490573e-01
2.009475309830061285e+00 -1.929425795770842278e+00 -1.845949479581544123e-02 -1.929425795770842278e+00 3.672838740360083509e+00 -2.685316570808976788e+00 -1.845949479581544123e-02 -2.685316570808976788e+00 6.138767012413944180e+00
-1.776824010544437060e+00 -1.941058060222626613e+00 -2.743505396287906795e+00 -1.941058060222626613e+00 1.840481912451706004e+00 -3.828658893051457568e+00 -2.743505396287906795e+00 -3.828658893051457568e+00 1.182902803774423139e+00
1.753476845336341228e+01 -8.811763890067720872e-01 -1.571264236728901142e+00 -8.811763890067720872e-01 1.621929411521704267e+01 -1.267050691993081069e+00 -1.571264236728901142e+00 -1.267050691993081069e+00 1.222064135319661737e+01
4.206726221395074461e+00 6.289939070377228436e-01 -9.371099038404174797e-01 6.289939070377228436e-01 9.566919432437687831e+00 -6.343188646325129687e-01 -9.371099038404174797e-01 -6.343188646325129687e-01 2.109281080457150903e+00
-6.533730458093371496e+00 -3.438975831009435158e+00 -1.244960861138787900e+00 -3.438975831009435158e+00 -3.839057667892459058e+00 -5.779614398733797564e+00 -1.244960861138787900e+00 -5.779614398733797564e+00 -2.162570061641331254e+00
-2.268744239156416653e-01 2.650889871096196782e+00 -1.957263725200410809e+00 2.650889871096196782e+00 -1.197010468062780442e+00 3.846718483527193033e+00 -1.957263725200410809e+00 3.846718483527193033e+00 -2.818971901729031351e-02
-2.605666712698787801e+00 -3.658487050982095923e+00 -3.574939559206923523e+00 -3.658487050982095923e+00 1.686222196539101548e+00 -2.046160668240239122e+00 -3.574939559206923523e+00 -2.046160668240239122e+00 -2.920138622590350064e+00
-2.337909774733905710e+00 -3.245139526420793175e+00 -4.095183545029963845e+00 -3.245139526420793175e+00 1.521527598745084919e+00 4.576941888269749015e+00 -4.095183545029963845e+00 4.576941888269749015e+00 2.242430309791591192e+00
7.669416501549358500e+00 4.119042494421280842e-02 -6.195344668675455413e-01 4.119042494421280842e-02 7.669093420482716361e+00 1.396438345822937688e+00 -6.195344668675455413e-01 1.396438345822937688e+00 5.974381329619184555e+00
-4.070823217933336124e+00 1.869544814751823436e+00 -2.314766538633570292e+00 1.869544814751823436e+00 2.081648950911428320e-01 1.854292753203756083e+00 -2.314766538633570292e+00 1.854292753203756083e+00 -1.189580816159038656e+00
-1.670455130915480479e+00 2.376821342351695066e+00 -4.481162309811935529e+00 2.376821342351695066e+00 -3.608624570973158807e+00 3.797841603371736596e+00 -4.481162309811935529e+00 3.797841603371736596e+00 -2.157552514452332648e+00
-9.940143623018657948e+00 -2.567695144684446706e+00 -1.178242993341585665e+00 -2.567695144684446706e+00 -4.608591697211025462e+00 3.800692169267994025e+00 -1.178242993341585665e+00 3.800692169267994025e+00 -3.252382438274141307e+00
-9.277039234864584927e+00 -1.609270606672249748e+00 -2.330232675771343853e+00 -1.609270606672249748e+00 -4.100279775929712045e+00 2.851719711570504412e+00 -2.330232675771343853e+00 2.851719711570504412e+00 -4.211459893931039922e+00
-5.864585451789332105e+00 -6.176882393433581579e-03 1.010116283054091069e+00 -6.176882393433581579e-03 -2.132951874390306646e+00 7.914853045711313373e-02 1.010116283054091069e+00 7.914853045711313373e-02 -5.312794847516359553e+00
-1.202326130168539092e-01 -2.226217419879650827e-01 -1.329356728036244828e+00 -2.226217419879650827e-01 1.638665038750009018e+00 1.343215101915092025e-01 -1.329356728036244828e+00 1.343215101915092025e-01 1.102494828830703044e+00
1.701303103557336982e+01 -3.857047510008092761e+00 -3.839262226174588122e+00 -3.857047510008092761e+00 2.224985442516128842e+01 -1.014902218104972720e+00 -3.839262226174588122e+00 -1.014902218104972720e+00 2.090365637743191485e+01
1.286072961928316261e+01 -3.904342552669294530e+00 -2.406833386889398074e+00 -3.904342552669294530e+00 1.392062420823147306e+01 -2.586413218289235427e+00 -2.406833386889398074e+00 -2.586413218289235427e+00 1.427457194579818456e+01