3.049199999999999910e+00 4.573800000000000310e+00 4.573800000000000310e+00 4.573800000000000310e+00 3.049199999999999910e+00 1.524599999999999955e+00 4.573800000000000310e+00 1.524599999999999955e+00 0.000000000000000000e+00 3.049199999999999910e+00 1.524599999999999955e+00 4.573800000000000310e+00 3.049199999999999910e+00 3.049199999999999910e+00 0.000000000000000000e+00 0.000000000000000000e+00 1.524599999999999955e+00 1.524599999999999955e+00 0.000000000000000000e+00 0.000000000000000000e+00 0.000000000000000000e+00 3.049199999999999910e+00 3.049199999999999910e+00 3.049199999999999910e+00 1.524599999999999955e+00 0.000000000000000000e+00 4.573800000000000310e+00 4.573800000000000310e+00 4.573800000000000310e+00 3.049199999999999910e+00 0.000000000000000000e+00 0.000000000000000000e+00 3.049199999999999910e+00 3.049199999999999910e+00 4.573800000000000310e+00 1.524599999999999955e+00 4.573800000000000310e+00 0.000000000000000000e+00 1.524599999999999955e+00 0.000000000000000000e+00 3.049199999999999910e+00 0.000000000000000000e+00 0.000000000000000000e+00 3.049199999999999910e+00 3.049199999999999910e+00 1.524599999999999955e+00 1.524599999999999955e+00 3.049199999999999910e+00 4.573800000000000310e+00 0.000000000000000000e+00 4.573800000000000310e+00 1.524599999999999955e+00 4.573800000000000310e+00 0.000000000000000000e+00 0.000000000000000000e+00 4.573800000000000310e+00 1.524599999999999955e+00 1.524599999999999955e+00 3.049199999999999910e+00 4.573800000000000310e+00 1.524599999999999955e+00 1.524599999999999955e+00 0.000000000000000000e+00 4.573800000000000310e+00 1.524599999999999955e+00 3.049199999999999910e+00 3.049199999999999910e+00 1.524599999999999955e+00 1.524599999999999955e+00 0.000000000000000000e+00 1.524599999999999955e+00 4.573800000000000310e+00 3.049199999999999910e+00 0.000000000000000000e+00 3.049199999999999910e+00 0.000000000000000000e+00 4.573800000000000310e+00 4.573800000000000310e+00 4.573800000000000310e+00 3.049199999999999910e+00 4.573800000000000310e+00 1.524599999999999955e+00 3.049199999999999910e+00 1.524599999999999955e+00 4.573800000000000310e+00 4.573800000000000310e+00 0.000000000000000000e+00 3.049199999999999910e+00 0.000000000000000000e+00 0.000000000000000000e+00 1.524599999999999955e+00 0.000000000000000000e+00 1.524599999999999955e+00 1.524599999999999955e+00 4.573800000000000310e+00 3.049199999999999910e+00
3.046300000000000008e+00 4.574349999999999916e+00 4.578400000000000247e+00 4.575409999999999755e+00 3.048979999999999801e+00 1.526540000000000008e+00 4.574799999999999756e+00 1.528399999999999981e+00 3.600000000000000227e-04 3.049209999999999976e+00 1.524180000000000090e+00 4.575770000000000337e+00 3.054650000000000087e+00 3.051250000000000018e+00 2.069999999999999792e-03 6.098200000000000287e+00 1.523430000000000062e+00 1.524610000000000021e+00 6.098090000000000011e+00 2.239999999999999804e-03 2.370000000000000145e-03 3.047639999999999905e+00 3.046110000000000095e+00 3.048090000000000188e+00 1.521490000000000009e+00 8.099999999999999561e-04 4.574650000000000105e+00 4.575429999999999886e+00 4.574840000000000018e+00 3.047309999999999963e+00 6.098230000000000040e+00 2.289999999999999935e-03 3.048490000000000144e+00 3.050469999999999793e+00 4.574419999999999931e+00 1.522850000000000037e+00 4.574040000000000106e+00 6.096180000000000376e+00 1.524759999999999893e+00 6.092629999999999768e+00 3.046300000000000008e+00 2.200000000000000078e-04 6.098320000000000185e+00 3.044799999999999951e+00 3.049329999999999874e+00 1.527900000000000036e+00 1.522969999999999935e+00 3.052130000000000010e+00 4.573879999999999946e+00 6.095650000000000013e+00 4.573760000000000048e+00 1.521870000000000056e+00 4.578359999999999985e+00 6.094739999999999824e+00 6.096890000000000143e+00 4.574799999999999756e+00 1.527600000000000069e+00 1.524029999999999996e+00 3.052639999999999798e+00 4.571819999999999773e+00 1.526440000000000019e+00 1.526890000000000081e+00 6.094699999999999562e+00 4.573879999999999946e+00 1.523789999999999978e+00 3.051610000000000156e+00 3.051280000000000214e+00 1.525060000000000082e+00 1.525819999999999954e+00 6.095170000000000421e+00 1.525360000000000049e+00 4.575540000000000163e+00 3.051390000000000047e+00 1.549999999999999946e-03 3.047379999999999978e+00 6.199999999999999999e-04 4.576039999999999885e+00 4.574139999999999873e+00 4.575300000000000367e+00 3.044449999999999878e+00 4.572090000000000209e+00 1.528680000000000039e+00 3.050019999999999953e+00 1.520000000000000018e+00 4.572860000000000369e+00 4.571799999999999642e+00 6.096239999999999881e+00 3.045780000000000154e+00 6.096949999999999648e+00 1.559999999999999972e-03 1.526029999999999998e+00 6.097970000000000113e+00 1.522669999999999968e+00 1.522680000000000033e+00 4.571539999999999715e+00 3.048379999999999868e+00
3.043489999999999807e+00 4.574880000000000280e+00 4.582810000000000272e+00 4.576990000000000336e+00 3.048760000000000137e+00 1.528510000000000035e+00 4.575719999999999565e+00 1.532030000000000003e+00 7.399999999999999894e-04 3.049230000000000107e+00 1.523740000000000094e+00 4.577740000000000364e+00 3.059979999999999922e+00 3.053269999999999929e+00 4.080000000000000293e-03 6.098060000000000258e+00 1.522289999999999921e+00 1.524639999999999995e+00 6.097749999999999559e+00 4.460000000000000422e-03 4.709999999999999777e-03 3.046139999999999848e+00 3.043130000000000113e+00 3.047029999999999905e+00 1.518440000000000012e+00 1.619999999999999912e-03 4.575429999999999886e+00 4.576990000000000336e+00 4.575809999999999711e+00 3.045519999999999783e+00 6.098099999999999632e+00 4.570000000000000277e-03 3.047789999999999999e+00 3.051699999999999857e+00 4.575009999999999799e+00 1.521169999999999911e+00 4.574270000000000280e+00 6.094020000000000437e+00 1.524869999999999948e+00 6.087040000000000006e+00 3.043520000000000003e+00 4.499999999999999877e-04 6.098300000000000054e+00 3.040459999999999940e+00 3.049430000000000085e+00 1.531120000000000037e+00 1.521360000000000046e+00 3.055000000000000160e+00 4.573929999999999829e+00 6.092950000000000088e+00 4.573769999999999669e+00 1.519099999999999895e+00 4.582770000000000010e+00 6.091199999999999726e+00 6.095439999999999969e+00 4.575730000000000075e+00 1.530499999999999972e+00 1.523460000000000036e+00 3.056000000000000050e+00 4.569930000000000270e+00 1.528259999999999952e+00 1.529199999999999893e+00 6.091070000000000206e+00 4.573949999999999960e+00 1.522950000000000026e+00 3.053960000000000008e+00 3.053329999999999878e+00 1.525490000000000013e+00 1.526980000000000004e+00 6.092039999999999900e+00 1.526070000000000038e+00 4.577250000000000263e+00 3.053510000000000169e+00 3.000000000000000062e-03 3.045630000000000059e+00 1.180000000000000059e-03 4.578210000000000335e+00 4.574440000000000062e+00 4.576719999999999899e+00 3.039880000000000138e+00 4.570339999999999847e+00 1.532640000000000002e+00 3.050819999999999865e+00 1.515430000000000055e+00 4.571990000000000443e+00 4.569860000000000255e+00 6.094120000000000203e+00 3.042489999999999917e+00 6.095579999999999998e+00 3.099999999999999891e-03 1.527420000000000000e+00 6.097579999999999778e+00 1.520809999999999995e+00 1.520829999999999904e+00 4.569359999999999644e+00 3.047540000000000138e+00
3.040820000000000078e+00 4.575370000000000381e+00 4.586879999999999846e+00 4.578540000000000276e+00 3.048569999999999780e+00 1.530550000000000077e+00 4.576469999999999594e+00 1.535320000000000018e+00 1.180000000000000059e-03 3.049279999999999990e+00 1.523279999999999967e+00 4.579720000000000013e+00 3.065069999999999961e+00 3.055229999999999890e+00 5.950000000000000427e-03 6.098069999999999879e+00 1.521209999999999951e+00 1.524710000000000010e+00 6.097319999999999851e+00 6.640000000000000069e-03 7.009999999999999738e-03 3.044740000000000002e+00 3.040389999999999926e+00 3.046060000000000212e+00 1.515490000000000004e+00 2.459999999999999947e-03 4.576069999999999638e+00 4.578389999999999738e+00 4.576629999999999754e+00 3.043960000000000221e+00 6.098040000000000127e+00 6.830000000000000134e-03 3.047130000000000116e+00 3.052859999999999907e+00 4.575560000000000294e+00 1.519600000000000062e+00 4.574460000000000193e+00 6.091999999999999638e+00 1.524850000000000039e+00 6.081780000000000186e+00 3.040970000000000173e+00 7.299999999999999632e-04 6.098379999999999690e+00 3.036239999999999828e+00 3.049479999999999968e+00 1.534189999999999943e+00 1.519810000000000105e+00 3.057720000000000216e+00 4.573920000000000208e+00 6.090329999999999799e+00 4.573870000000000324e+00 1.516280000000000072e+00 4.586859999999999715e+00 6.087880000000000180e+00 6.094120000000000203e+00 4.576550000000000118e+00 1.533230000000000093e+00 1.522880000000000011e+00 3.059229999999999894e+00 4.568220000000000169e+00 1.530019999999999936e+00 1.531549999999999967e+00 6.087579999999999991e+00 4.573990000000000222e+00 1.522059999999999969e+00 3.056189999999999962e+00 3.055340000000000167e+00 1.525870000000000060e+00 1.528029999999999999e+00 6.089100000000000179e+00 1.526680000000000037e+00 4.578909999999999592e+00 3.055489999999999817e+00 4.270000000000000358e-03 3.044029999999999792e+00 1.619999999999999912e-03 4.580239999999999867e+00 4.574690000000000367e+00 4.578000000000000291e+00 3.035649999999999959e+00 4.568489999999999718e+00 1.536370000000000013e+00 3.051590000000000025e+00 1.510930000000000106e+00 4.571270000000000167e+00 4.568039999999999878e+00 6.092039999999999900e+00 3.039429999999999854e+00 6.094380000000000130e+00 4.570000000000000277e-03 1.528759999999999897e+00 6.097249999999999837e+00 1.519079999999999986e+00 1.519109999999999960e+00 4.567309999999999981e+00 3.046670000000000211e+00
3.038359999999999950e+00 4.575800000000000090e+00 4.590460000000000207e+00 4.580029999999999824e+00 3.048410000000000064e+00 1.532690000000000108e+00 4.576990000000000336e+00 1.538140000000000063e+00 1.690000000000000096e-03 3.049360000000000070e+00 1.522790000000000088e+00 4.581719999999999793e+00 3.069819999999999993e+00 3.057110000000000216e+00 7.629999999999999630e-03 6.098279999999999923e+00 1.520210000000000061e+00 1.524829999999999908e+00 6.096770000000000245e+00 8.760000000000000425e-03 9.239999999999999949e-03 3.043480000000000185e+00 3.037980000000000125e+00 3.045220000000000038e+00 1.512699999999999934e+00 3.330000000000000061e-03 4.576500000000000234e+00 4.579589999999999606e+00 4.577250000000000263e+00 3.042710000000000026e+00 6.098069999999999879e+00 9.050000000000000752e-03 3.046510000000000051e+00 3.053920000000000190e+00 4.576050000000000395e+00 1.518210000000000059e+00 4.574629999999999974e+00 6.090180000000000149e+00 1.524680000000000035e+00 6.077009999999999579e+00 3.038759999999999906e+00 1.039999999999999909e-03 2.300000000000000070e-04 3.032200000000000006e+00 3.049440000000000150e+00 1.537039999999999962e+00 1.518340000000000023e+00 3.060249999999999915e+00 4.573820000000000441e+00 6.087850000000000428e+00 4.574110000000000120e+00 1.513379999999999947e+00 4.590530000000000221e+00 6.084880000000000067e+00 6.092999999999999972e+00 4.577210000000000001e+00 1.535700000000000065e+00 1.522310000000000052e+00 3.062250000000000139e+00 4.566769999999999996e+00 1.531709999999999905e+00 1.533959999999999990e+00 6.084279999999999688e+00 4.573999999999999844e+00 1.521090000000000053e+00 3.058250000000000135e+00 3.057279999999999998e+00 1.526170000000000027e+00 1.528909999999999991e+00 6.086439999999999628e+00 1.527160000000000073e+00 4.580479999999999663e+00 3.057269999999999932e+00 5.270000000000000379e-03 3.042640000000000011e+00 1.879999999999999944e-03 4.582080000000000375e+00 4.574860000000000149e+00 4.579069999999999752e+00 3.031909999999999883e+00 4.566510000000000069e+00 1.539749999999999952e+00 3.052319999999999922e+00 1.506510000000000016e+00 4.570739999999999803e+00 4.566379999999999661e+00 6.090060000000000251e+00 3.036700000000000177e+00 6.093399999999999928e+00 5.950000000000000427e-03 1.530019999999999936e+00 6.097030000000000172e+00 1.517539999999999889e+00 1.517570000000000086e+00 4.565459999999999852e+00 3.045739999999999892e+00
3.036160000000000192e+00 4.576159999999999783e+00 4.593429999999999680e+00 4.581459999999999866e+00 3.048280000000000101e+00 1.534950000000000037e+00 4.577200000000000379e+00 1.540350000000000108e+00 2.309999999999999987e-03 3.049490000000000034e+00 1.522270000000000012e+00 4.583719999999999573e+00 3.074139999999999873e+00 3.058889999999999887e+00 9.060000000000000345e-03 3.400000000000000244e-04 1.519309999999999938e+00 1.525020000000000042e+00 6.096090000000000231e+00 1.080000000000000057e-02 1.137999999999999949e-02 3.042400000000000215e+00 3.035979999999999901e+00 3.044540000000000024e+00 1.510099999999999998e+00 4.230000000000000253e-03 4.576670000000000016e+00 4.580519999999999925e+00 4.577609999999999957e+00 3.041840000000000099e+00 6.098220000000000418e+00 1.120999999999999948e-02 3.045939999999999870e+00 3.054860000000000131e+00 4.576469999999999594e+00 1.517039999999999944e+00 4.574740000000000251e+00 6.088599999999999568e+00 1.524310000000000054e+00 6.072840000000000238e+00 3.036960000000000104e+00 1.420000000000000038e-03 6.800000000000000488e-04 3.028369999999999784e+00 3.049290000000000056e+00 1.539609999999999923e+00 1.516969999999999930e+00 3.062530000000000197e+00 4.573610000000000397e+00 6.085530000000000328e+00 4.574510000000000076e+00 1.510380000000000056e+00 4.593650000000000233e+00 6.082279999999999909e+00 6.092109999999999914e+00 4.577659999999999840e+00 1.537849999999999939e+00 1.521730000000000027e+00 3.065020000000000078e+00 4.565629999999999633e+00 1.533309999999999951e+00 1.536429999999999962e+00 6.081220000000000070e+00 4.573949999999999960e+00 1.520019999999999927e+00 3.060099999999999820e+00 3.059130000000000127e+00 1.526380000000000070e+00 1.529579999999999940e+00 6.084120000000000417e+00 1.527449999999999974e+00 4.581949999999999967e+00 3.058809999999999807e+00 5.930000000000000375e-03 3.041519999999999779e+00 1.920000000000000049e-03 4.583680000000000199e+00 4.574919999999999654e+00 4.579869999999999663e+00 3.028779999999999806e+00 4.564370000000000260e+00 1.542720000000000091e+00 3.052989999999999871e+00 1.502220000000000111e+00 4.570470000000000255e+00 4.564930000000000376e+00 6.088169999999999860e+00 3.034380000000000077e+00 6.092699999999999783e+00 7.210000000000000263e-03 1.531179999999999986e+00 6.096930000000000405e+00 1.516240000000000032e+00 1.516270000000000007e+00 4.563860000000000028e+00 3.044760000000000133e+00
3.034250000000000114e+00 4.576439999999999841e+00 4.595679999999999765e+00 4.582799999999999763e+00 3.048189999999999955e+00 1.537360000000000060e+00 4.577069999999999972e+00 1.541860000000000008e+00 3.040000000000000167e-03 3.049679999999999946e+00 1.521700000000000053e+00 4.585740000000000371e+00 3.077980000000000160e+00 3.060550000000000104e+00 1.020000000000000073e-02 1.100000000000000066e-03 1.518540000000000001e+00 1.525290000000000035e+00 6.095250000000000057e+00 1.277000000000000010e-02 1.341999999999999964e-02 3.041500000000000092e+00 3.034450000000000092e+00 3.044059999999999988e+00 1.507730000000000015e+00 5.179999999999999709e-03 4.576559999999999739e+00 4.581150000000000055e+00 4.577679999999999971e+00 3.041430000000000078e+00 1.000000000000000048e-04 1.329999999999999932e-02 3.045430000000000081e+00 3.055660000000000043e+00 4.576789999999999914e+00 1.516110000000000069e+00 4.574799999999999756e+00 6.087299999999999933e+00 1.523709999999999898e+00 6.069370000000000154e+00 3.035649999999999959e+00 1.869999999999999917e-03 1.379999999999999933e-03 3.024789999999999868e+00 3.049030000000000129e+00 1.541879999999999917e+00 1.515719999999999956e+00 3.064519999999999911e+00 4.573269999999999946e+00 6.083400000000000141e+00 4.575099999999999945e+00 1.507270000000000110e+00 4.596140000000000114e+00 6.080160000000000231e+00 6.091490000000000293e+00 4.577880000000000393e+00 1.539630000000000054e+00 1.521139999999999937e+00 3.067499999999999893e+00 4.564849999999999852e+00 1.534790000000000099e+00 1.538980000000000015e+00 6.078459999999999752e+00 4.573850000000000193e+00 1.518829999999999902e+00 3.061679999999999957e+00 3.060869999999999980e+00 1.526480000000000059e+00 1.530010000000000092e+00 6.082209999999999894e+00 1.527530000000000054e+00 4.583319999999999617e+00 3.060070000000000068e+00 6.210000000000000242e-03 3.040709999999999802e+00 1.709999999999999932e-03 4.584999999999999964e+00 4.574830000000000396e+00 4.580370000000000275e+00 3.026370000000000005e+00 4.562050000000000161e+00 1.545190000000000063e+00 3.053609999999999935e+00 1.498070000000000013e+00 4.570509999999999629e+00 4.563719999999999999e+00 6.086420000000000385e+00 3.032519999999999882e+00 6.092319999999999958e+00 8.340000000000000191e-03 1.532219999999999915e+00 6.096969999999999779e+00 1.515209999999999946e+00 1.515220000000000011e+00 4.562540000000000262e+00 3.043699999999999850e+00
3.032649999999999846e+00 4.576649999999999885e+00 4.597159999999999691e+00 4.584050000000000402e+00 3.048140000000000072e+00 1.539930000000000021e+00 4.576570000000000249e+00 1.542620000000000102e+00 3.899999999999999821e-03 3.049939999999999873e+00 1.521099999999999897e+00 4.587760000000000282e+00 3.081290000000000084e+00 3.062079999999999913e+00 1.102000000000000028e-02 2.190000000000000106e-03 1.517919999999999936e+00 1.525619999999999976e+00 6.094249999999999723e+00 1.464000000000000024e-02 1.533999999999999947e-02 3.040810000000000013e+00 3.033440000000000136e+00 3.043779999999999930e+00 1.505619999999999958e+00 6.150000000000000085e-03 4.576139999999999652e+00 4.581459999999999866e+00 4.577449999999999797e+00 3.041510000000000158e+00 5.100000000000000366e-04 1.529999999999999936e-02 3.044989999999999863e+00 3.056299999999999795e+00 4.577009999999999579e+00 1.515449999999999964e+00 4.574810000000000265e+00 6.086289999999999978e+00 1.522869999999999946e+00 6.066650000000000098e+00 3.034870000000000179e+00 2.370000000000000145e-03 2.370000000000000145e-03 3.021490000000000009e+00 3.048639999999999795e+00 1.543809999999999905e+00 1.514639999999999986e+00 3.066180000000000128e+00 4.572779999999999845e+00 6.081489999999999618e+00 4.575899999999999856e+00 1.504040000000000044e+00 4.597959999999999603e+00 6.078570000000000029e+00 6.091169999999999973e+00 4.577840000000000131e+00 1.541009999999999991e+00 1.520540000000000003e+00 3.069640000000000146e+00 4.564479999999999649e+00 1.536129999999999995e+00 1.541600000000000081e+00 6.076010000000000133e+00 4.573669999999999902e+00 1.517479999999999940e+00 3.062980000000000036e+00 3.062489999999999934e+00 1.526480000000000059e+00 1.530189999999999939e+00 6.080750000000000099e+00 1.527390000000000025e+00 4.584570000000000256e+00 3.061020000000000074e+00 6.040000000000000230e-03 3.040249999999999897e+00 1.209999999999999921e-03 4.586009999999999920e+00 4.574580000000000091e+00 4.580530000000000435e+00 3.024750000000000050e+00 4.559540000000000148e+00 1.547129999999999894e+00 3.054149999999999920e+00 1.494089999999999918e+00 4.570870000000000211e+00 4.562780000000000058e+00 6.084810000000000052e+00 3.031179999999999986e+00 6.092279999999999696e+00 9.299999999999999239e-03 1.533130000000000104e+00 6.097190000000000332e+00 1.514480000000000048e+00 1.514469999999999983e+00 4.561550000000000438e+00 3.042549999999999866e+00
3.031359999999999832e+00 4.576780000000000292e+00 4.597800000000000331e+00 4.585200000000000387e+00 3.048130000000000006e+00 1.542659999999999920e+00 4.575669999999999682e+00 1.542580000000000062e+00 4.899999999999999842e-03 3.050269999999999815e+00 1.520450000000000079e+00 4.589750000000000441e+00 3.084039999999999893e+00 3.063480000000000203e+00 1.149000000000000021e-02 3.629999999999999980e-03 1.517460000000000031e+00 1.526029999999999998e+00 6.093099999999999739e+00 1.642000000000000057e-02 1.711999999999999980e-02 3.040309999999999846e+00 3.032979999999999787e+00 3.043719999999999981e+00 1.503789999999999960e+00 7.150000000000000105e-03 4.575409999999999755e+00 4.581439999999999735e+00 4.576889999999999681e+00 3.042110000000000092e+00 1.039999999999999909e-03 1.718000000000000083e-02 3.044610000000000039e+00 3.056770000000000209e+00 4.577119999999999855e+00 1.515069999999999917e+00 4.574760000000000382e+00 6.085600000000000342e+00 1.521810000000000107e+00 6.064739999999999576e+00 3.034650000000000070e+00 2.939999999999999905e-03 3.700000000000000164e-03 3.018510000000000026e+00 3.048119999999999941e+00 1.545420000000000016e+00 1.513730000000000020e+00 3.067480000000000206e+00 4.572149999999999714e+00 6.079830000000000290e+00 4.576920000000000321e+00 1.500699999999999923e+00 4.599059999999999704e+00 6.077549999999999564e+00 6.091169999999999973e+00 4.577530000000000321e+00 1.541979999999999906e+00 1.519940000000000069e+00 3.071419999999999817e+00 4.564540000000000042e+00 1.537330000000000085e+00 1.544280000000000097e+00 6.073929999999999829e+00 4.573409999999999975e+00 1.515959999999999974e+00 3.063979999999999926e+00 3.063959999999999795e+00 1.526350000000000096e+00 1.530110000000000081e+00 6.079749999999999766e+00 1.527009999999999978e+00 4.585709999999999731e+00 3.061630000000000074e+00 5.400000000000000286e-03 3.040160000000000196e+00 4.099999999999999912e-04 4.586669999999999803e+00 4.574130000000000251e+00 4.580320000000000391e+00 3.023960000000000203e+00 4.556840000000000224e+00 1.548510000000000053e+00 3.054609999999999825e+00 1.490310000000000024e+00 4.571589999999999598e+00 4.562129999999999797e+00 6.083380000000000010e+00 3.030359999999999943e+00 6.092579999999999885e+00 1.008000000000000042e-02 1.533910000000000107e+00 6.097579999999999778e+00 1.514070000000000027e+00 1.514019999999999921e+00 4.560889999999999667e+00 3.041300000000000114e+00
3.030400000000000205e+00 4.576839999999999797e+00 4.597579999999999778e+00 4.586240000000000094e+00 3.048160000000000203e+00 1.545549999999999979e+00 4.574370000000000047e+00 1.541740000000000110e+00 6.040000000000000230e-03 3.050689999999999902e+00 1.519770000000000065e+00 4.591709999999999958e+00 3.086199999999999832e+00 3.064760000000000151e+00 1.157000000000000042e-02 5.440000000000000391e-03 1.517200000000000104e+00 1.526510000000000034e+00 6.091800000000000104e+00 1.808999999999999844e-02 1.873999999999999971e-02 3.040000000000000036e+00 3.033079999999999998e+00 3.043880000000000141e+00 1.502259999999999929e+00 8.139999999999999666e-03 4.574379999999999669e+00 4.581080000000000041e+00 4.576019999999999754e+00 3.043239999999999945e+00 1.690000000000000096e-03 1.890999999999999973e-02 3.044299999999999784e+00 3.057069999999999954e+00 4.577119999999999855e+00 1.514969999999999928e+00 4.574659999999999727e+00 6.085210000000000008e+00 1.520520000000000094e+00 6.063649999999999984e+00 3.035000000000000142e+00 3.559999999999999797e-03 5.389999999999999826e-03 3.015859999999999985e+00 3.047460000000000058e+00 1.546689999999999898e+00 1.513039999999999941e+00 3.068400000000000016e+00 4.571360000000000312e+00 6.078450000000000131e+00 4.578159999999999563e+00 1.497270000000000101e+00 4.599440000000000417e+00 6.077119999999999855e+00 6.091490000000000293e+00 4.576950000000000074e+00 1.542519999999999891e+00 1.519330000000000069e+00 3.072810000000000041e+00 4.565050000000000274e+00 1.538359999999999950e+00 1.547020000000000062e+00 6.072219999999999729e+00 4.573059999999999903e+00 1.514240000000000030e+00 3.064639999999999809e+00 3.065259999999999874e+00 1.526129999999999987e+00 1.529770000000000074e+00 6.079229999999999912e+00 1.526389999999999914e+00 4.586739999999999817e+00 3.061900000000000066e+00 4.270000000000000358e-03 3.040470000000000006e+00 6.097710000000000186e+00 4.586990000000000123e+00 4.573450000000000237e+00 4.579760000000000275e+00 3.024049999999999905e+00 4.553950000000000387e+00 1.549290000000000056e+00 3.054980000000000029e+00 1.486760000000000081e+00 4.572689999999999699e+00 4.561770000000000103e+00 6.082150000000000389e+00 3.030069999999999819e+00 6.093200000000000394e+00 1.064999999999999974e-02 1.534540000000000015e+00 6.098180000000000156e+00 1.513980000000000103e+00 1.513879999999999892e+00 4.560590000000000366e+00 3.039950000000000152e+00
3.029729999999999812e+00 4.576839999999999797e+00 4.596499999999999808e+00 4.587170000000000414e+00 3.048210000000000086e+00 1.548599999999999977e+00 4.572700000000000209e+00 1.540119999999999933e+00 7.320000000000000118e-03 3.051210000000000200e+00 1.519069999999999920e+00 4.593589999999999840e+00 3.087769999999999904e+00 3.065929999999999822e+00 1.124999999999999958e-02 7.629999999999999630e-03 1.517130000000000090e+00 1.527030000000000109e+00 6.090390000000000192e+00 1.965000000000000080e-02 2.018000000000000002e-02 3.039839999999999876e+00 3.033749999999999947e+00 3.044270000000000032e+00 1.501049999999999995e+00 9.119999999999999635e-03 4.573070000000000412e+00 4.580409999999999648e+00 4.574860000000000149e+00 3.044909999999999783e+00 2.429999999999999868e-03 2.044999999999999943e-02 3.044049999999999923e+00 3.057199999999999918e+00 4.576999999999999957e+00 1.515149999999999997e+00 4.574510000000000076e+00 6.085119999999999862e+00 1.519050000000000011e+00 6.063360000000000305e+00 3.035930000000000017e+00 4.210000000000000200e-03 7.470000000000000077e-03 3.013560000000000016e+00 3.046679999999999833e+00 1.547649999999999970e+00 1.512610000000000010e+00 3.068909999999999805e+00 4.570420000000000371e+00 6.077350000000000030e+00 4.579609999999999737e+00 1.493770000000000042e+00 4.599109999999999587e+00 6.077300000000000146e+00 6.092130000000000045e+00 4.576109999999999900e+00 1.542640000000000011e+00 1.518710000000000004e+00 3.073789999999999800e+00 4.565999999999999837e+00 1.539199999999999902e+00 1.549779999999999935e+00 6.070929999999999715e+00 4.572600000000000442e+00 1.512299999999999978e+00 3.064960000000000129e+00 3.066359999999999975e+00 1.525800000000000045e+00 1.529169999999999918e+00 6.079180000000000028e+00 1.525539999999999896e+00 4.587659999999999627e+00 3.061789999999999790e+00 2.629999999999999959e-03 3.041199999999999903e+00 6.096300000000000274e+00 4.586940000000000239e+00 4.572510000000000296e+00 4.578829999999999956e+00 3.025009999999999977e+00 4.550900000000000389e+00 1.549479999999999968e+00 3.055229999999999890e+00 1.483479999999999910e+00 4.574160000000000004e+00 4.561709999999999710e+00 6.081159999999999677e+00 3.030279999999999863e+00 6.094109999999999694e+00 1.099999999999999936e-02 1.535029999999999895e+00 5.800000000000000034e-04 1.514210000000000056e+00 1.514049999999999896e+00 4.560649999999999871e+00 3.038510000000000044e+00
3.029339999999999922e+00 4.576789999999999914e+00 4.594560000000000421e+00 4.587970000000000326e+00 3.048270000000000035e+00 1.551770000000000094e+00 4.570680000000000298e+00 1.537749999999999950e+00 8.720000000000000320e-03 3.051829999999999821e+00 1.518369999999999997e+00 4.595369999999999955e+00 3.088750000000000107e+00 3.067009999999999792e+00 1.051000000000000024e-02 1.020000000000000073e-02 1.517290000000000028e+00 1.527590000000000003e+00 6.088899999999999757e+00 2.109000000000000111e-02 2.143000000000000113e-02 3.039810000000000123e+00 3.034959999999999880e+00 3.044869999999999965e+00 1.500189999999999912e+00 1.004000000000000031e-02 4.571509999999999962e+00 4.579439999999999955e+00 4.573439999999999728e+00 3.047079999999999789e+00 3.220000000000000206e-03 2.176000000000000156e-02 3.043860000000000010e+00 3.057150000000000034e+00 4.576760000000000161e+00 1.515579999999999927e+00 4.574320000000000164e+00 6.085300000000000153e+00 1.517430000000000057e+00 6.063839999999999897e+00 3.037399999999999878e+00 4.870000000000000197e-03 9.969999999999999696e-03 3.011649999999999938e+00 3.045780000000000154e+00 1.548319999999999919e+00 1.512459999999999916e+00 3.068999999999999950e+00 4.569340000000000401e+00 6.076579999999999870e+00 4.581269999999999953e+00 1.490240000000000009e+00 4.598069999999999879e+00 6.078090000000000437e+00 6.093069999999999986e+00 4.575020000000000309e+00 1.542350000000000110e+00 1.518089999999999939e+00 3.074349999999999916e+00 4.567409999999999748e+00 1.539849999999999941e+00 1.552519999999999900e+00 6.070079999999999920e+00 4.572020000000000195e+00 1.510129999999999972e+00 3.064929999999999932e+00 3.067219999999999835e+00 1.525400000000000089e+00 1.528340000000000032e+00 6.079600000000000115e+00 1.524480000000000057e+00 4.588479999999999670e+00 3.061319999999999819e+00 4.699999999999999859e-04 3.042330000000000201e+00 6.094590000000000174e+00 4.586509999999999643e+00 4.571270000000000167e+00 4.577560000000000073e+00 3.026839999999999975e+00 4.547719999999999985e+00 1.549080000000000013e+00 3.055369999999999919e+00 1.480539999999999967e+00 4.575990000000000002e+00 4.561950000000000394e+00 6.080420000000000158e+00 3.030969999999999942e+00 6.095270000000000188e+00 1.111000000000000008e-02 1.535390000000000033e+00 1.610000000000000103e-03 1.514739999999999975e+00 1.514529999999999932e+00 4.561079999999999579e+00 3.036970000000000169e+00