-4.004052905999999723e+01
-4.002983173999999877e+01
-3.999932513000000256e+01
-3.995341595000000012e+01
-3.989849198999999658e+01
-3.984178518000000224e+01
-3.979018569000000127e+01
-3.974926288000000341e+01
-3.972251577000000111e+01
-3.971102111999999806e+01
-3.971336203999999981e+01
-3.972583991999999853e+01
-3.974303287000000040e+01
-3.975855495999999789e+01
-3.976602884999999787e+01
-3.976015816999999686e+01
-3.973783951000000059e+01
-3.969879536999999914e+01
-3.964591942999999929e+01
-3.958478328999999718e+01
-3.384861290999999994e+01
-3.383739300999999955e+01
-3.380807649999999853e+01
-3.376479276999999968e+01
-3.371340203999999829e+01
-3.366050531999999862e+01
-3.361240228999999857e+01
-3.357428448999999659e+01
-3.354950673999999822e+01
-3.353934375000000045e+01
-3.354271442000000292e+01
-3.355645599000000345e+01
-3.357563250999999838e+01
-3.359422937000000076e+01
-3.360594866000000280e+01
-3.360523003000000131e+01
-3.358817801000000003e+01
-3.355342442999999975e+01
-3.350244299999999953e+01
-3.343941765999999660e+01
-3.721321017999999725e+01
-3.720237846999999931e+01
-3.717477739000000270e+01
-3.713410892999999646e+01
-3.708555956000000009e+01
-3.703488397999999648e+01
-3.698758294000000291e+01
-3.694815579000000128e+01
-3.691959666000000340e+01
-3.690310748000000274e+01
-3.689807972999999919e+01
-3.690222236000000322e+01
-3.691193939000000057e+01
-3.692279103999999990e+01
-3.693007546999999846e+01
-3.692957229000000297e+01
-3.691811515999999926e+01
-3.689416797999999886e+01
-3.685808306999999928e+01
-3.681204766999999833e+01
-3.949124429999999819e+01
-3.948274058999999880e+01
-3.945700938000000235e+01
-3.941719385999999758e+01
-3.936816024000000169e+01
-3.931570108999999746e+01
-3.926578418999999798e+01
-3.922369513000000296e+01
-3.919345673000000119e+01
-3.917733505000000349e+01
-3.917559113000000082e+01
-3.918635697999999934e+01
-3.920572521999999793e+01
-3.922806860000000029e+01
-3.924662184999999681e+01
-3.925434220000000352e+01
-3.924494311000000124e+01
-3.921413608000000295e+01
-3.916070590999999723e+01
-3.908717034000000012e+01
-3.366617756000000128e+01
-3.365365562000000210e+01
-3.361912060000000224e+01
-3.356798461000000344e+01
-3.350819537999999653e+01
-3.344875652999999716e+01
-3.339812758000000059e+01
-3.336286177000000208e+01
-3.334662071000000338e+01
-3.334962497000000070e+01
-3.336861001999999843e+01
-3.339716064000000273e+01
-3.342664692000000315e+01
-3.344750780999999762e+01
-3.345099533999999863e+01
-3.343094366999999778e+01
-3.338534053000000057e+01
-3.331710995000000253e+01
-3.323381598999999653e+01
-3.314635898000000225e+01
-2.217234158000000122e+01
-2.216264917999999895e+01
-2.213646697000000074e+01
-2.209722027999999838e+01
-2.204981653000000108e+01
-2.199986507999999930e+01
-2.195287882999999951e+01
-2.191347346999999957e+01
-2.188491150999999846e+01
-2.186868463000000062e+01
-2.186439804999999836e+01
-2.186974625999999944e+01
-2.188077364000000102e+01
-2.189224563000000146e+01
-2.189830273000000105e+01
-2.189336323999999934e+01
-2.187312508000000122e+01
-2.183564313000000112e+01
-2.178208662000000118e+01
-2.171705757000000148e+01
-2.857981553999999846e+01
-2.857284844999999862e+01
-2.854553393999999855e+01
-2.850193961000000087e+01
-2.844845912999999982e+01
-2.839252639000000045e+01
-2.834140212000000147e+01
-2.830099896000000115e+01
-2.827508303000000112e+01
-2.826479459000000105e+01
-2.826855704000000102e+01
-2.828229788999999883e+01
-2.830008374999999887e+01
-2.831500524999999868e+01
-2.832034973000000022e+01
-2.831088803999999826e+01
-2.828397698999999932e+01
-2.824040262999999840e+01
-2.818432311000000112e+01
-2.812259699000000168e+01
-5.109178947000000193e+01
-5.107482645000000332e+01
-5.103974019000000339e+01
-5.099102145999999891e+01
-5.093469357000000031e+01
-5.087739839000000330e+01
-5.082558012999999875e+01
-5.078465065999999695e+01
-5.075851287999999784e+01
-5.074911842000000206e+01
-5.075626152000000246e+01
-5.077755453999999702e+01
-5.080845296999999761e+01
-5.084264292000000296e+01
-5.087250696000000261e+01
-5.089001968000000176e+01
-5.088789623000000262e+01
-5.086094401999999803e+01
-5.080732755999999739e+01
-5.072933864000000170e+01
-3.818560861000000273e+01
-3.817569882000000092e+01
-3.814542850000000129e+01
-3.809927249999999788e+01
-3.804367948000000155e+01
-3.798596092999999740e+01
-3.793314527999999797e+01
-3.789107339000000252e+01
-3.786367178999999794e+01
-3.785257854000000322e+01
-3.785704765999999921e+01
-3.787408743999999672e+01
-3.789882048999999853e+01
-3.792504733999999900e+01
-3.794608604999999812e+01
-3.795564249000000245e+01
-3.794883817000000192e+01
-3.792305135000000149e+01
-3.787845835000000250e+01
-3.781796324999999825e+01
-3.947411694000000182e+01
-3.946571241000000185e+01
-3.944164508000000069e+01
-3.940506768000000193e+01
-3.936038786999999672e+01
-3.931257025000000027e+01
-3.926639157000000324e+01
-3.922588484999999991e+01
-3.919390903000000037e+01
-3.917193191999999868e+01
-3.915999842000000086e+01
-3.915680798999999723e+01
-3.915996383000000236e+01
-3.916628532000000007e+01
-3.917218579000000034e+01
-3.917408498999999722e+01
-3.916885106000000150e+01
-3.915418573000000180e+01
-3.912887660999999895e+01
-3.909303021000000200e+01
-6.406754648999999802e+01
-6.406066712000000507e+01
-6.404068273000000033e+01
-6.400942136999999832e+01
-6.396963216999999702e+01
-6.392463639999999714e+01
-6.387795085999999856e+01
-6.383295105999999919e+01
-6.379258077000000071e+01
-6.375914307000000036e+01
-6.373416845999999936e+01
-6.371831045999999787e+01
-6.371137085000000155e+01
-6.371226111000000003e+01
-6.371905258999999688e+01
-6.372906262000000055e+01
-6.373898966000000144e+01
-6.374505632999999705e+01
-6.374335774000000043e+01
-6.373018137999999766e+01
-5.671858859000000308e+01
-5.671239291999999921e+01
-5.668733541999999659e+01
-5.664678769999999730e+01
-5.659598548000000307e+01
-5.654117020000000338e+01
-5.648862506999999766e+01
-5.644387223999999748e+01
-5.641102244000000354e+01
-5.639232940000000127e+01
-5.638799867000000177e+01
-5.639619213000000286e+01
-5.641320894999999780e+01
-5.643386470000000088e+01
-5.645212956999999676e+01
-5.646187886999999961e+01
-5.645786640000000034e+01
-5.643663088000000272e+01
-5.639733116000000024e+01
-5.634209354000000047e+01
-4.333266049000000208e+01
-4.332335855000000180e+01
-4.329658280000000303e+01
-4.325578797000000009e+01
-4.320609857000000176e+01
-4.315352379000000127e+01
-4.310402306999999666e+01
-4.306275786999999866e+01
-4.303342958999999723e+01
-4.301787833000000205e+01
-4.301588781000000239e+01
-4.302518520000000279e+01
-4.304166534000000155e+01
-4.305988971000000021e+01
-4.307365192999999692e+01
-4.307686636999999763e+01
-4.306455954999999847e+01
-4.303380283999999989e+01
-4.298439815999999780e+01
-4.291921961999999979e+01
-6.459130770999999527e+01
-6.458457011000000136e+01
-6.456147713000000010e+01
-6.452452544000000501e+01
-6.447764277999999649e+01
-6.442565786000000116e+01
-6.437373144999999397e+01
-6.432680347999999526e+01
-6.428910349999999596e+01
-6.426379785999999683e+01
-6.425268862000000070e+01
-6.425601473999999769e+01
-6.427229126999999664e+01
-6.429828818000000012e+01
-6.432905838000000642e+01
-6.435817418000000600e+01
-6.437823808999999642e+01
-6.438172480000000064e+01
-6.436214209000000608e+01
-6.431541830000000459e+01
-7.124689540999999338e+01
-7.123732284000000448e+01
-7.121249448000000370e+01
-7.117520281000000182e+01
-7.112945227000000159e+01
-7.107991457999999341e+01
-7.103135958999999389e+01
-7.098810998999999811e+01
-7.095365728000000161e+01
-7.093031405000000689e+01
-7.091906545000000506e+01
-7.091943817000000649e+01
-7.092952391999999406e+01
-7.094605846999999699e+01
-7.096464835999999821e+01
-7.098009009999999819e+01
-7.098692674000000125e+01
-7.098016312000000028e+01
-7.095606736000000581e+01
-7.091296174999999380e+01
-7.504579735999999457e+01
-7.503572583000000407e+01
-7.500981183999999757e+01
-7.497085124999999550e+01
-7.492293802000000369e+01
-7.487090553000000170e+01
-7.481976505000000088e+01
-7.477416827999999782e+01
-7.473796457000000260e+01
-7.471387258000000031e+01
-7.470327163000000326e+01
-7.470603547999999705e+01
-7.472047791999999333e+01
-7.474335478000000421e+01
-7.476997416000000385e+01
-7.479444789000000071e+01
-7.481020341999999346e+01
-7.481073009000000695e+01
-7.479052896999999689e+01
-7.474625075000000152e+01
-6.161628080999999924e+01
-6.161129987999999713e+01
-6.159216913000000204e+01
-6.156048650999999694e+01
-6.151904010999999883e+01
-6.147145634999999686e+01
-6.142176562000000217e+01
-6.137400268999999753e+01
-6.133181874000000278e+01
-6.129818802999999861e+01
-6.127515941000000055e+01
-6.126372873999999769e+01
-6.126370219999999733e+01
-6.127369980000000282e+01
-6.129112377999999950e+01
-6.131222187000000190e+01
-6.133233345000000014e+01
-6.134614187999999757e+01
-6.134824846000000065e+01
-6.133382541999999660e+01
-6.689874776999999995e+01
-6.689014319999999714e+01
-6.686639205999999547e+01
-6.682999488999999471e+01
-6.678472865000000525e+01
-6.673515955999999960e+01
-6.668603804999999340e+01
-6.664181082999999717e+01
-6.660614906000000701e+01
-6.658164514999999994e+01
-6.656956963999999743e+01
-6.656975314999999682e+01
-6.658054344999999330e+01
-6.659887263000000246e+01
-6.662037813999999969e+01
-6.663974260000000527e+01
-6.665111152999999433e+01
-6.664879978999999821e+01
-6.662815143999999634e+01
-6.658635651999999538e+01
-6.969508856000000208e+01
-6.968807743000000698e+01
-6.966488513999999554e+01
-6.962779596000000026e+01
-6.958058063999999376e+01
-6.952798830999999780e+01
-6.947516183999999839e+01
-6.942703011999999774e+01
-6.938782645000000571e+01
-6.936068222000000105e+01
-6.934732160000000079e+01
-6.934790517999999793e+01
-6.936094593999999347e+01
-6.938330426000000273e+01
-6.941034947999999360e+01
-6.943625749000000269e+01
-6.945453645999999992e+01
-6.945881246999999803e+01
-6.944381495999999743e+01
-6.940640315999999643e+01
-8.224976671999999667e+01
-8.224281867999999918e+01
-8.222254567000000236e+01
-8.219062422000000367e+01
-8.214966884000000391e+01
-8.210292936999999824e+01
-8.205395081999999718e+01
-8.200624261999999476e+01
-8.196301603999999941e+01
-8.192695555000000240e+01
-8.190009388000000001e+01
-8.188363768000000675e+01
-8.187795814000000405e+01
-8.188250039999999785e+01
-8.189574758000000543e+01
-8.191522440999999333e+01
-8.193747899000000245e+01
-8.195819174000000373e+01
-8.197238024000000678e+01
-8.197480274000000122e+01
-8.295138412000000017e+01
-8.294557227999999327e+01
-8.292772490999999491e+01
-8.289935966000000178e+01
-8.286279032999999572e+01
-8.282085374999999772e+01
-8.277663214999999752e+01
-8.273320567000000381e+01
-8.269340404000000433e+01
-8.265963055999999654e+01
-8.263371241999999484e+01
-8.261679275000000189e+01
-8.260924826000000110e+01
-8.261066408000000649e+01
-8.261973091000000124e+01
-8.263425270000000467e+01
-8.265111695000000225e+01
-8.266635506000000078e+01
-8.267541866000000539e+01
-8.267342533000000060e+01
-7.970447681999999645e+01
-7.969790754000000277e+01
-7.967870695999999953e+01
-7.964842805000000681e+01
-7.960953317999999967e+01
-7.956510534999999606e+01
-7.951856768999999758e+01
-7.947333973000000640e+01
-7.943256818000000408e+01
-7.939891801999999643e+01
-7.937433249999999418e+01
-7.935996434999999849e+01
-7.935605787000000078e+01
-7.936186025000000654e+01
-7.937560800999999344e+01
-7.939448808000000213e+01
-7.941467907000000537e+01
-7.943157352999999432e+01
-7.943996805999999822e+01
-7.943467798999999729e+01
-8.378201534000000095e+01
-8.377267175000000066e+01
-8.375123582000000511e+01
-8.371952813000000049e+01
-8.368017181000000448e+01
-8.363625358999999548e+01
-8.359104775000000132e+01
-8.354771352999999579e+01
-8.350905740999999693e+01
-8.347731274000000212e+01
-8.345402882000000488e+01
-8.343995768999999996e+01
-8.343501564999999687e+01
-8.343823428000000320e+01
-8.344780366000000527e+01
-8.346106498999999701e+01
-8.347466744000000460e+01
-8.348466684999999643e+01
-8.348688393999999846e+01
-8.347725733999999420e+01
-7.489785274999999842e+01
-7.489351132999999550e+01
-7.487445678000000271e+01
-7.484240569000000676e+01
-7.480028285999999582e+01
-7.475191750999999840e+01
-7.470153147000000615e+01
-7.465338425000000200e+01
-7.461135140999999749e+01
-7.457859320999999397e+01
-7.455733815000000675e+01
-7.454864809000000037e+01
-7.455232272000000648e+01
-7.456680409000000509e+01
-7.458915736000000152e+01
-7.461513166000000297e+01
-7.463932585999999958e+01
-7.465561601000000280e+01
-7.465774068999999713e+01
-7.464016786999999908e+01
-8.700404030999999350e+01
-8.699811721000000375e+01
-8.698033719999999391e+01
-8.695210425999999870e+01
-8.691564083999999468e+01
-8.687375645000000191e+01
-8.682954499999999598e+01
-8.678613441000000250e+01
-8.674638955999999723e+01
-8.671276853999999901e+01
-8.668712650000000508e+01
-8.667057604000000026e+01
-8.666344300000000089e+01
-8.666516135999999904e+01
-8.667423105999999677e+01
-8.668819727999999714e+01
-8.670369207999999617e+01
-8.671655054000000007e+01
-8.672204342000000565e+01
-8.671531373999999914e+01
-7.105596065999999666e+01
-7.105024292000000230e+01
-7.102916113999999936e+01
-7.099465510000000279e+01
-7.095000348000000656e+01
-7.089931701000000430e+01
-7.084713981000000160e+01
-7.079792833000000485e+01
-7.075564344999999378e+01
-7.072346240000000250e+01
-7.070346213000000546e+01
-7.069650876999999412e+01
-7.070215638999999896e+01
-7.071856617000000256e+01
-7.074253477999999973e+01
-7.076956941999999628e+01
-7.079409809000000564e+01
-7.080993162999999413e+01
-7.081085170999999434e+01
-7.079151351000000147e+01
-7.297737272000000530e+01
-7.297278876999999397e+01
-7.295223278000000278e+01
-7.291775904000000708e+01
-7.287276181999999380e+01
-7.282154927999999927e+01
-7.276883877000000211e+01
-7.271921265999999662e+01
-7.267676194000000578e+01
-7.264470833999999400e+01
-7.262516381999999737e+01
-7.261900425000000325e+01
-7.262573838999999509e+01
-7.264345373000000450e+01
-7.266882216000000483e+01
-7.269718636000000345e+01
-7.272275276000000588e+01
-7.273908736999999292e+01
-7.273973125000000550e+01
-7.271921652999999708e+01
-8.447957320000000436e+01
-8.447054208000000131e+01
-8.444992283000000555e+01
-8.441937274000000002e+01
-8.438134660000000054e+01
-8.433886067000000253e+01
-8.429513436999999954e+01
-8.425332500999999752e+01
-8.421626154999999869e+01
-8.418621210999999960e+01
-8.416471282000000542e+01
-8.415248979000000418e+01
-8.414935237999999629e+01
-8.415419832000000611e+01
-8.416495987999999784e+01
-8.417868534000000125e+01
-8.419168525999999986e+01
-8.419973729999999534e+01
-8.419845660000000009e+01
-8.418382013000000086e+01
-9.328591052000000161e+01
-9.328245981999999970e+01
-9.326648545999999840e+01
-9.323919091000000492e+01
-9.320259622000000377e+01
-9.315941981999999655e+01
-9.311272219999999322e+01
-9.306572667000000365e+01
-9.302152114999999810e+01
-9.298286480000000154e+01
-9.295201740999999629e+01
-9.293064035000000445e+01
-9.291966553000000317e+01
-9.291922875000000204e+01
-9.292858205999999655e+01
-9.294599286000000404e+01
-9.296873481000000083e+01
-9.299303811000000053e+01
-9.301417299999999955e+01
-9.302666843000000085e+01
-9.571974160000000609e+01
-9.571483686999999918e+01
-9.570048151000000303e+01
-9.567763359999999295e+01
-9.564773456000000351e+01
-9.561257480999999814e+01
-9.557415820999999312e+01
-9.553452294000000222e+01
-9.549566376999999306e+01
-9.545936532999999713e+01
-9.542714153999999382e+01
-9.540021147000000212e+01
-9.537940380000000573e+01
-9.536513922000000321e+01
-9.535739526000000410e+01
-9.535566312000000266e+01
-9.535890836999999465e+01
-9.536550821999999528e+01
-9.537324929000000395e+01
-9.537926785999999879e+01
-9.387350630000000251e+01
-9.386603882999999371e+01
-9.384932965000000138e+01
-9.382452480999999977e+01
-9.379326387999999781e+01
-9.375754931000000170e+01
-9.371956050999999377e+01
-9.368146070000000236e+01
-9.364527058000000181e+01
-9.361270940999999368e+01
-9.358510556000000236e+01
-9.356332114999999305e+01
-9.354772174000000007e+01
-9.353812028000000112e+01
-9.353377781000000368e+01
-9.353341679000000397e+01
-9.353526227000000404e+01
-9.353706434999999431e+01
-9.353622592000000679e+01
-9.352997836999999492e+01
-9.564710744999999292e+01
-9.564313078000000701e+01
-9.563130400999999381e+01
-9.561231927000000042e+01
-9.558724994000000663e+01
-9.555747863999999936e+01
-9.552455168999999557e+01
-9.549007305000000656e+01
-9.545561222000000612e+01
-9.542259810999999559e+01
-9.539223848999999689e+01
-9.536547606000000599e+01
-9.534294452999999692e+01
-9.532493445999999437e+01
-9.531139820999999301e+01
-9.530191888999999605e+01
-9.529569001999999500e+01
-9.529155468000000440e+01
-9.528800506999999698e+01
-9.528321205999999677e+01
-9.239165810999999451e+01
-9.238788811000000578e+01
-9.237316332999999702e+01
-9.234852166000000295e+01
-9.231569600000000264e+01
-9.227695601000000636e+01
-9.223488021000000003e+01
-9.219216326000000095e+01
-9.215137934000000541e+01
-9.211482521000000645e+01
-9.208438039000000686e+01
-9.206141490000000260e+01
-9.204668621000000428e+01
-9.204029574000000480e+01
-9.204163920999999959e+01
-9.204936408000000370e+01
-9.206133531999999775e+01
-9.207468919000000085e+01
-9.208586940000000709e+01
-9.209083164999999838e+01
-8.863891700000000640e+01
-8.863245512999999676e+01
-8.861577662999999916e+01
-8.859005437000000427e+01
-8.855706972000000121e+01
-8.851900139999999340e+01
-8.847824968000000467e+01
-8.843723803000000316e+01
-8.839824192000000380e+01
-8.836328537999999355e+01
-8.833401958000000320e+01
-8.831164067000000273e+01
-8.829681379999999535e+01
-8.828965968999999347e+01
-8.828965209999999786e+01
-8.829560754999999972e+01
-8.830561446000000103e+01
-8.831703896000000498e+01
-8.832651224999999329e+01
-8.833009217000000035e+01
-9.161372989999999561e+01
-9.160696532999999420e+01
-9.158975096000000349e+01
-9.156342053000000192e+01
-9.152997281000000385e+01
-9.149184990999999911e+01
-9.145170235000000503e+01
-9.141213172000000498e+01
-9.137553187999999693e+01
-9.134387553999999909e+01
-9.131860901000000297e+01
-9.130057392000000505e+01
-9.128993871000000127e+01
-9.128615523000000564e+01
-9.128795415999999818e+01
-9.129337576000000354e+01
-9.129981985000000577e+01
-9.130417081000000223e+01
-9.130297446000000150e+01
-9.129275054999999384e+01
-9.283280573000000402e+01
-9.282665842000000112e+01
-9.280965055000000064e+01
-9.278301602000000514e+01
-9.274867915000000096e+01
-9.270904289000000631e+01
-9.266673627000000124e+01
-9.262443369999999732e+01
-9.258459679000000619e+01
-9.254936644000000001e+01
-9.252041155999999944e+01
-9.249885607000000221e+01
-9.248519378000000302e+01
-9.247929000999999971e+01
-9.248033293999999671e+01
-9.248683115999999416e+01
-9.249665131000000429e+01
-9.250706925000000069e+01
-9.251488238999999680e+01
-9.251662038000000621e+01
-1.011684524599999975e+02
-1.011647488600000031e+02
-1.011519605000000013e+02
-1.011309376600000007e+02
-1.011029101400000059e+02
-1.010694942700000070e+02
-1.010325162700000021e+02
-1.009938657600000056e+02
-1.009553831099999996e+02
-1.009187727200000069e+02
-1.008855220300000042e+02
-1.008568331299999983e+02
-1.008336022499999984e+02
-1.008163682099999932e+02
-1.008053137999999933e+02
-1.008002113400000042e+02
-1.008003802000000064e+02
-1.008046844099999930e+02
-1.008114591199999950e+02
-1.008185331199999979e+02
-1.021455268800000056e+02
-1.021408461999999986e+02
-1.021272373799999968e+02
-1.021054810499999945e+02
-1.020767966800000011e+02
-1.020427381700000069e+02
-1.020050682199999983e+02
-1.019656449000000009e+02
-1.019263436699999943e+02
-1.018889155899999963e+02
-1.018549462099999943e+02
-1.018258025100000026e+02
-1.018025370299999963e+02
-1.017859123700000055e+02
-1.017763121400000017e+02
-1.017737131699999935e+02
-1.017776294800000016e+02
-1.017870156099999974e+02
-1.018002019599999954e+02
-1.018148169100000047e+02
-9.890329072999999482e+01
-9.889785679000000584e+01
-9.888350665000000106e+01
-9.886110017999999400e+01
-9.883190290999999661e+01
-9.879751439000000346e+01
-9.875975235999999313e+01
-9.872048171999999511e+01
-9.868156632000000172e+01
-9.864470712000000674e+01
-9.861140398000000573e+01
-9.858289904999999465e+01
-9.856013545999999792e+01
-9.854370244000000412e+01
-9.853382621000000086e+01
-9.853032410000000141e+01
-9.853256091999999455e+01
-9.853939841000000399e+01
-9.854913664000000040e+01
-9.855948123000000294e+01
-1.054038088799999997e+02
-1.053993459400000035e+02
-1.053862086500000004e+02
-1.053651318499999974e+02
-1.053372748400000063e+02
-1.053041240600000066e+02
-1.052673709900000034e+02
-1.052288164499999965e+02
-1.051902331900000007e+02
-1.051533155599999958e+02
-1.051195295499999958e+02
-1.050901271200000053e+02
-1.050660525100000058e+02
-1.050479243799999978e+02
-1.050360211800000059e+02
-1.050301892199999969e+02
-1.050298640599999942e+02
-1.050339681100000035e+02
-1.050409155600000020e+02
-1.050485438000000045e+02
-1.033473040399999974e+02
-1.033404795900000011e+02
-1.033252980500000007e+02
-1.033026147900000069e+02
-1.032736353300000047e+02
-1.032398797400000063e+02
-1.032030297200000035e+02
-1.031648393699999957e+02
-1.031270238200000051e+02
-1.030911983499999991e+02
-1.030587687499999987e+02
-1.030309476900000050e+02
-1.030086366099999964e+02
-1.029924494600000031e+02
-1.029826764200000042e+02
-1.029791910800000068e+02
-1.029814815799999934e+02
-1.029885285799999934e+02
-1.029987492599999968e+02
-1.030099636399999952e+02
-1.073430632799999955e+02
-1.073407449999999983e+02
-1.073313378400000033e+02
-1.073152551400000050e+02
-1.072931773699999951e+02
-1.072660334199999994e+02
-1.072349165400000004e+02
-1.072010549200000042e+02
-1.071656834500000031e+02
-1.071300550499999957e+02
-1.070953285599999987e+02
-1.070625946400000004e+02
-1.070327827600000035e+02
-1.070066812200000044e+02
-1.069849126000000012e+02
-1.069679141999999956e+02
-1.069558945999999935e+02
-1.069488374000000022e+02
-1.069464347899999979e+02
-1.069480235700000037e+02
-1.034029002200000065e+02
-1.034002866299999965e+02
-1.033901929599999931e+02
-1.033731926100000038e+02
-1.033501345699999945e+02
-1.033221779699999985e+02
-1.032906226300000014e+02
-1.032568882799999983e+02
-1.032223390900000055e+02
-1.031882966499999981e+02
-1.031559243500000065e+02
-1.031261914899999965e+02
-1.030998637099999939e+02
-1.030774457100000063e+02
-1.030591882199999958e+02
-1.030450819099999933e+02
-1.030348328200000054e+02
-1.030278354999999948e+02
-1.030231964999999974e+02
-1.030196893399999993e+02
-1.090258458200000007e+02
-1.090194635000000005e+02
-1.090054369100000002e+02
-1.089845516400000065e+02
-1.089579156300000022e+02
-1.089268686700000046e+02
-1.088929012400000005e+02
-1.088575448800000061e+02
-1.088223052799999948e+02
-1.087885856599999954e+02
-1.087576231099999973e+02
-1.087304459500000036e+02
-1.087078596099999999e+02
-1.086903716099999997e+02
-1.086782219400000002e+02
-1.086712958699999945e+02
-1.086691187200000002e+02
-1.086708062000000012e+02
-1.086750066799999956e+02
-1.086799129500000021e+02
-1.041815476600000068e+02
-1.041732531300000062e+02
-1.041557472599999983e+02
-1.041301564500000012e+02
-1.040980478000000033e+02
-1.040613302800000071e+02
-1.040220574399999975e+02
-1.039823311899999965e+02
-1.039441153199999945e+02
-1.039091802399999978e+02
-1.038790192000000019e+02
-1.038547593600000027e+02
-1.038371430600000025e+02
-1.038264705099999929e+02
-1.038225848600000063e+02
-1.038247658699999931e+02
-1.038317944799999992e+02
-1.038417802700000010e+02
-1.038522535299999987e+02
-1.038601084200000031e+02
-1.013536462099999937e+02
-1.013521182900000071e+02
-1.013406604999999985e+02
-1.013199847599999970e+02
-1.012913591899999943e+02
-1.012564879100000041e+02
-1.012173835600000018e+02
-1.011761678700000004e+02
-1.011349807999999939e+02
-1.010958259500000054e+02
-1.010604859200000050e+02
-1.010304445999999956e+02
-1.010068159100000003e+02
-1.009903170500000016e+02
-1.009812175900000000e+02
-1.009793234200000001e+02
-1.009838984499999981e+02
-1.009936315700000051e+02
-1.010065945399999947e+02
-1.010201980899999938e+02
-1.106463107200000024e+02
-1.106420577699999939e+02
-1.106316299899999933e+02
-1.106155138900000026e+02
-1.105943548900000053e+02
-1.105690302200000019e+02
-1.105405065000000064e+02
-1.105098270900000017e+02
-1.104780347800000015e+02
-1.104461414600000069e+02
-1.104150976800000024e+02
-1.103857521399999939e+02
-1.103588459199999932e+02
-1.103349594599999932e+02
-1.103145342499999941e+02
-1.102978398399999946e+02
-1.102849539300000004e+02
-1.102757129299999974e+02
-1.102697137899999973e+02
-1.102662657999999993e+02
-9.714344823999999790e+01
-9.713950425000000166e+01
-9.712572425000000464e+01
-9.710299218000000110e+01
-9.707278413999999600e+01
-9.703703763999999410e+01
-9.699796482000000708e+01
-9.695785139000000186e+01
-9.691895456999999681e+01
-9.688332479000000319e+01
-9.685268999999999551e+01
-9.682837155999999368e+01
-9.681123983999999894e+01
-9.680161452000000111e+01
-9.679923696999999549e+01
-9.680320666000000074e+01
-9.681195404000000337e+01
-9.682317885000000501e+01
-9.683392080000000135e+01
-9.684058679999999697e+01
-1.056580094100000053e+02
-1.056566002699999984e+02
-1.056479490600000020e+02
-1.056324476399999952e+02
-1.056107974500000068e+02
-1.055840126599999991e+02
-1.055533036199999941e+02
-1.055200054999999963e+02
-1.054855125100000066e+02
-1.054511658100000062e+02
-1.054182083500000005e+02
-1.053877533800000066e+02
-1.053606963200000024e+02
-1.053377379700000063e+02
-1.053193172900000008e+02
-1.053056090399999931e+02
-1.052964837100000040e+02
-1.052914853599999958e+02
-1.052898263099999951e+02
-1.052902742499999960e+02
-1.120507221499999986e+02
-1.120474041599999993e+02
-1.120375957400000004e+02
-1.120217162800000068e+02
-1.120004247600000014e+02
-1.119745780399999973e+02
-1.119451631999999961e+02
-1.119132486299999982e+02
-1.118799404300000049e+02
-1.118463129499999980e+02
-1.118133916799999952e+02
-1.117821080500000051e+02
-1.117532990499999954e+02
-1.117276527199999947e+02
-1.117057104400000043e+02
-1.116878610699999967e+02
-1.116743168999999938e+02
-1.116650575299999986e+02
-1.116598383999999982e+02
-1.116581167700000066e+02
-1.133793774199999973e+02
-1.133749778399999997e+02
-1.133648923399999973e+02
-1.133495119100000039e+02
-1.133294115300000016e+02
-1.133053506499999941e+02
-1.132781992000000031e+02
-1.132488783699999999e+02
-1.132183366000000007e+02
-1.131875053699999967e+02
-1.131572602800000027e+02
-1.131283848799999987e+02
-1.131015542899999957e+02
-1.130773369799999983e+02
-1.130561640699999941e+02
-1.130383102499999950e+02
-1.130238770100000067e+02
-1.130128095099999967e+02
-1.130048127299999976e+02
-1.129993690400000048e+02
-1.112132729199999943e+02
-1.112086756599999973e+02
-1.111962634300000019e+02
-1.111766213100000016e+02
-1.111506566000000049e+02
-1.111195291899999944e+02
-1.110846293400000064e+02
-1.110474172100000061e+02
-1.110094183899999933e+02
-1.109720863000000008e+02
-1.109367950999999977e+02
-1.109047796800000043e+02
-1.108770761699999952e+02
-1.108545259800000053e+02
-1.108377394299999992e+02
-1.108270495400000044e+02
-1.108224870199999970e+02
-1.108236881400000016e+02
-1.108298753699999963e+02
-1.108397127500000039e+02
-1.115094324699999930e+02
-1.115071619299999952e+02
-1.114986964099999938e+02
-1.114843875899999972e+02
-1.114648486100000042e+02
-1.114408810500000016e+02
-1.114133912100000003e+02
-1.113834082999999993e+02
-1.113519473399999953e+02
-1.113200304300000028e+02
-1.112886067400000059e+02
-1.112585357800000025e+02
-1.112305589700000041e+02
-1.112052700499999958e+02
-1.111831367399999948e+02
-1.111644402499999984e+02
-1.111492778199999947e+02
-1.111375567999999987e+02
-1.111289333299999953e+02
-1.111228440099999943e+02
-1.126754841999999996e+02
-1.126723233999999962e+02
-1.126630988200000019e+02
-1.126481679399999933e+02
-1.126280993799999948e+02
-1.126036291500000033e+02
-1.125756151599999981e+02
-1.125450048000000010e+02
-1.125127723899999950e+02
-1.124798732699999988e+02
-1.124472293500000006e+02
-1.124157037300000042e+02
-1.123860533900000007e+02
-1.123589420499999960e+02
-1.123349223700000010e+02
-1.123144200899999987e+02
-1.122977164699999975e+02
-1.122849182500000040e+02
-1.122759666900000042e+02
-1.122705558699999955e+02
-1.090407065400000022e+02
-1.090362832299999951e+02
-1.090235224900000048e+02
-1.090031240400000030e+02
-1.089761103600000069e+02
-1.089438354600000025e+02
-1.089078746699999982e+02
-1.088698810300000019e+02
-1.088315341100000069e+02
-1.087944226399999934e+02
-1.087600411300000047e+02
-1.087296653899999939e+02
-1.087043911199999968e+02
-1.086850273700000002e+02
-1.086721007499999985e+02
-1.086658363899999955e+02
-1.086660433400000016e+02
-1.086721111699999938e+02
-1.086828968599999996e+02
-1.086966321400000055e+02
-1.126091676300000017e+02
-1.126046856600000012e+02
-1.125936037999999968e+02
-1.125764182199999937e+02
-1.125538753400000047e+02
-1.125269098200000002e+02
-1.124965950200000009e+02
-1.124640648799999951e+02
-1.124304865799999931e+02
-1.123969753899999944e+02
-1.123645904699999960e+02
-1.123342683999999991e+02
-1.123068202599999950e+02
-1.122829195199999930e+02
-1.122630463699999979e+02
-1.122475342399999931e+02
-1.122364730299999991e+02
-1.122297309700000056e+02
-1.122268792600000040e+02
-1.122271635599999939e+02
-1.067763410999999962e+02
-1.067724471700000066e+02
-1.067613501999999954e+02
-1.067435389299999997e+02
-1.067198113400000068e+02
-1.066911984300000000e+02
-1.066589490000000069e+02
-1.066243933500000054e+02
-1.065888908999999956e+02
-1.065537561099999948e+02
-1.065202304799999951e+02
-1.064894064300000025e+02
-1.064622129100000052e+02
-1.064393754799999954e+02
-1.064213970899999993e+02
-1.064085451699999965e+02
-1.064007902700000017e+02
-1.063977873000000045e+02
-1.063988220500000068e+02
-1.064027345300000036e+02
-1.142113578400000051e+02
-1.142086837300000042e+02
-1.142003306200000026e+02
-1.141866031400000026e+02
-1.141680056900000011e+02
-1.141451829199999963e+02
-1.141188910599999957e+02
-1.140899808500000034e+02
-1.140593229800000046e+02
-1.140277911000000017e+02
-1.139962326400000023e+02
-1.139654419799999943e+02
-1.139361460500000049e+02