-5.000000000000000409e-06 -9.999999999999999547e-07 3.000000000000000076e-06 9.999999999999999547e-07 -1.999999999999999909e-06 -3.999999999999999819e-06 0.000000000000000000e+00 9.999999999999999547e-07 3.999999999999999819e-06 -3.000000000000000076e-06 9.999999999999999547e-07 3.000000000000000076e-06 -3.999999999999999819e-06 -9.999999999999999547e-07 3.000000000000000076e-06 3.000000000000000076e-06 9.999999999999999547e-07 -3.000000000000000076e-06 3.000000000000000076e-06 9.999999999999999547e-07 3.999999999999999819e-06 -3.999999999999999819e-06 -9.999999999999999547e-07 -3.000000000000000076e-06 9.999999999999999547e-07 0.000000000000000000e+00 3.000000000000000076e-06 0.000000000000000000e+00 0.000000000000000000e+00 -3.000000000000000076e-06 3.999999999999999819e-06 1.999999999999999909e-06 -3.999999999999999819e-06 -3.999999999999999819e-06 -9.999999999999999547e-07 -3.000000000000000076e-06 9.999999999999999547e-07 1.999999999999999909e-06 -3.000000000000000076e-06 3.999999999999999819e-06 -9.999999999999999547e-07 3.999999999999999819e-06 5.000000000000000409e-06 -9.999999999999999547e-07 -3.999999999999999819e-06 -9.999999999999999547e-07 9.999999999999999547e-07 -3.000000000000000076e-06 -9.999999999999999547e-07 1.999999999999999909e-06 3.000000000000000076e-06 0.000000000000000000e+00 -9.999999999999999547e-07 3.000000000000000076e-06 3.999999999999999819e-06 -9.999999999999999547e-07 -3.000000000000000076e-06 9.999999999999999547e-07 0.000000000000000000e+00 3.000000000000000076e-06 0.000000000000000000e+00 9.999999999999999547e-07 3.000000000000000076e-06 0.000000000000000000e+00 0.000000000000000000e+00 -3.999999999999999819e-06 -3.000000000000000076e-06 9.999999999999999547e-07 -3.000000000000000076e-06 3.999999999999999819e-06 9.999999999999999547e-07 3.000000000000000076e-06 -3.999999999999999819e-06 9.999999999999999547e-07 -3.000000000000000076e-06 5.000000000000000409e-06 -9.999999999999999547e-07 3.000000000000000076e-06 0.000000000000000000e+00 -9.999999999999999547e-07 3.999999999999999819e-06 -9.999999999999999547e-07 -9.999999999999999547e-07 -3.000000000000000076e-06 0.000000000000000000e+00 -9.999999999999999547e-07 3.000000000000000076e-06 -3.000000000000000076e-06 9.999999999999999547e-07 3.000000000000000076e-06 -9.999999999999999547e-07 9.999999999999999547e-07 -3.000000000000000076e-06 0.000000000000000000e+00 -9.999999999999999547e-07 -3.000000000000000076e-06
1.285250000000000004e-01 -3.752199999999999980e-02 -2.949129999999999807e-01 -3.283799999999999913e-02 1.794099999999999862e-02 5.642199999999999993e-02 -1.404239999999999933e-01 -2.858820000000000250e-01 4.431399999999999922e-02 1.871799999999999853e-02 -1.847499999999999837e-02 9.296999999999999709e-03 -2.049199999999999910e-01 -4.819899999999999879e-02 -1.142019999999999980e-01 1.190679999999999933e-01 4.749099999999999849e-02 3.347399999999999681e-02 -6.949900000000000522e-02 -3.581199999999999661e-02 -3.931400000000000172e-02 8.812799999999999800e-02 1.985550000000000093e-01 7.888299999999999479e-02 9.241099999999999315e-02 1.748200000000000101e-02 -1.240060000000000051e-01 -1.294160000000000033e-01 -1.245499999999999940e-01 1.856420000000000015e-01 5.867900000000000199e-02 -2.149999999999999828e-02 2.590599999999999847e-02 -5.925099999999999811e-02 -3.645400000000000029e-02 1.033270000000000022e-01 -2.289599999999999969e-02 1.170390000000000041e-01 -9.812800000000000689e-02 2.879860000000000197e-01 1.975860000000000116e-01 2.945599999999999954e-02 9.103899999999999493e-02 1.025380000000000041e-01 -4.971600000000000324e-02 -1.337049999999999905e-01 4.569700000000000151e-02 -1.179899999999999977e-01 -5.261199999999999904e-02 7.613999999999999935e-02 8.049800000000000011e-02 -4.744099999999999706e-02 -2.621729999999999894e-01 1.884399999999999964e-01 1.118689999999999962e-01 -9.879400000000000681e-02 -1.531029999999999891e-01 -5.990000000000000316e-04 -1.179830000000000045e-01 1.519379999999999897e-01 -4.251900000000000124e-02 3.237000000000000294e-02 1.152959999999999957e-01 -1.977999999999999897e-02 -4.157199999999999784e-02 -1.008819999999999995e-01 -3.983699999999999741e-02 -4.610199999999999715e-02 -9.906099999999999628e-02 1.636529999999999929e-01 -8.145499999999999963e-02 -4.958900000000000113e-02 -1.171110000000000068e-01 -1.585080000000000100e-01 1.263039999999999996e-01 -1.024609999999999965e-01 -1.142340000000000022e-01 -4.609699999999999909e-02 -1.236420000000000019e-01 2.897980000000000000e-01 -7.810799999999999688e-02 -2.026229999999999976e-01 -2.535799999999999860e-02 5.568399999999999739e-02 1.179469999999999963e-01 9.748500000000000221e-02 4.747900000000000037e-02 1.996930000000000094e-01 1.381920000000000093e-01 -5.190700000000000175e-02 -4.766000000000000097e-02 5.767100000000000004e-02 1.117100000000000037e-01 1.115249999999999991e-01 1.185959999999999931e-01 -2.706700000000000078e-02
2.491659999999999986e-01 -7.087799999999999656e-02 -5.746609999999999774e-01 -6.562999999999999390e-02 3.461700000000000194e-02 1.089360000000000051e-01 -2.748519999999999852e-01 -5.591829999999999856e-01 8.755400000000000682e-02 3.831500000000000183e-02 -3.510599999999999832e-02 1.443499999999999991e-02 -4.008880000000000221e-01 -9.755099999999999882e-02 -2.242020000000000124e-01 2.305689999999999962e-01 9.432200000000000306e-02 6.408500000000000307e-02 -1.331720000000000126e-01 -7.115299999999999403e-02 -7.979999999999999594e-02 1.702239999999999864e-01 3.863820000000000032e-01 1.533009999999999928e-01 1.820019999999999971e-01 3.368399999999999866e-02 -2.398820000000000119e-01 -2.501610000000000222e-01 -2.409070000000000100e-01 3.611809999999999743e-01 1.127849999999999964e-01 -4.562900000000000289e-02 5.106000000000000122e-02 -1.157409999999999967e-01 -7.133699999999999763e-02 2.022410000000000041e-01 -4.438600000000000184e-02 2.287530000000000119e-01 -1.892969999999999930e-01 5.652829999999999799e-01 3.874190000000000134e-01 5.645200000000000218e-02 1.792120000000000102e-01 2.034749999999999892e-01 -9.618599999999999373e-02 -2.613280000000000047e-01 9.070799999999999697e-02 -2.310899999999999899e-01 -1.020729999999999971e-01 1.511210000000000053e-01 1.547769999999999979e-01 -8.917400000000000326e-02 -5.109740000000000393e-01 3.720919999999999783e-01 2.191879999999999939e-01 -1.916420000000000068e-01 -2.997079999999999744e-01 -1.639000000000000049e-03 -2.338639999999999886e-01 2.952119999999999744e-01 -8.603600000000000136e-02 6.006800000000000334e-02 2.275800000000000045e-01 -3.987899999999999778e-02 -8.255099999999999938e-02 -1.995629999999999904e-01 -7.974900000000000044e-02 -8.947299999999999698e-02 -1.933670000000000111e-01 3.224560000000000204e-01 -1.615179999999999949e-01 -9.692800000000000027e-02 -2.283139999999999892e-01 -3.089319999999999844e-01 2.463770000000000127e-01 -2.003189999999999971e-01 -2.239949999999999997e-01 -9.253000000000000114e-02 -2.428619999999999945e-01 5.682530000000000081e-01 -1.486069999999999891e-01 -3.959909999999999819e-01 -4.901699999999999807e-02 1.125629999999999964e-01 2.318550000000000055e-01 1.925499999999999989e-01 9.542399999999999494e-02 3.889090000000000047e-01 2.678949999999999942e-01 -1.037379999999999969e-01 -9.458400000000000141e-02 1.126120000000000038e-01 2.197939999999999894e-01 2.167530000000000012e-01 2.318620000000000125e-01 -5.338600000000000290e-02
3.570710000000000273e-01 -9.851799999999999446e-02 -8.281199999999999672e-01 -9.812099999999999989e-02 4.886999999999999678e-02 1.521879999999999900e-01 -3.958039999999999892e-01 -8.070019999999999971e-01 1.264699999999999991e-01 5.835200000000000109e-02 -4.798600000000000088e-02 1.226000000000000006e-02 -5.815240000000000409e-01 -1.456040000000000112e-01 -3.271760000000000224e-01 3.297479999999999856e-01 1.400200000000000056e-01 8.894499999999999629e-02 -1.860050000000000037e-01 -1.057099999999999984e-01 -1.220009999999999983e-01 2.415899999999999992e-01 5.556119999999999948e-01 2.203809999999999936e-01 2.677510000000000168e-01 4.544800000000000229e-02 -3.404320000000000124e-01 -3.562939999999999996e-01 -3.426130000000000009e-01 5.189700000000000424e-01 1.576369999999999993e-01 -7.504800000000000360e-02 7.436700000000000255e-02 -1.675069999999999892e-01 -1.034980000000000067e-01 2.916969999999999841e-01 -6.309299999999999631e-02 3.301760000000000250e-01 -2.671229999999999993e-01 8.199779999999999847e-01 5.607729999999999659e-01 7.828899999999999748e-02 2.620669999999999944e-01 3.019459999999999922e-01 -1.366860000000000019e-01 -3.770850000000000035e-01 1.368959999999999899e-01 -3.372229999999999950e-01 -1.458689999999999987e-01 2.246180000000000121e-01 2.189939999999999942e-01 -1.194149999999999934e-01 -7.359970000000000123e-01 5.441000000000000281e-01 3.167929999999999913e-01 -2.742609999999999770e-01 -4.341249999999999831e-01 -2.524999999999999901e-03 -3.449769999999999781e-01 4.244450000000000167e-01 -1.306980000000000086e-01 7.848099999999999521e-02 3.352580000000000005e-01 -6.017900000000000332e-02 -1.216760000000000064e-01 -2.930159999999999987e-01 -1.207150000000000029e-01 -1.273009999999999975e-01 -2.781109999999999971e-01 4.698180000000000134e-01 -2.354189999999999894e-01 -1.396969999999999879e-01 -3.296780000000000266e-01 -4.451749999999999874e-01 3.564510000000000178e-01 -2.890840000000000076e-01 -3.260910000000000197e-01 -1.389180000000000137e-01 -3.520719999999999961e-01 8.243509999999999449e-01 -2.049789999999999945e-01 -5.732140000000000013e-01 -7.173799999999999621e-02 1.734140000000000126e-01 3.363920000000000243e-01 2.811259999999999870e-01 1.444600000000000051e-01 5.592120000000000424e-01 3.814790000000000125e-01 -1.552379999999999871e-01 -1.391739999999999922e-01 1.631759999999999877e-01 3.189119999999999733e-01 3.115809999999999969e-01 3.356970000000000232e-01 -7.679199999999999915e-02
4.475290000000000101e-01 -1.189270000000000049e-01 -1.045493999999999923e+00 -1.295090000000000130e-01 5.982400000000000218e-02 1.821270000000000111e-01 -4.958759999999999835e-01 -1.016402000000000028e+00 1.582810000000000050e-01 7.699599999999999500e-02 -5.576600000000000307e-02 7.600000000000000418e-05 -7.417620000000000324e-01 -1.894530000000000103e-01 -4.195220000000000060e-01 4.124010000000000176e-01 1.837129999999999874e-01 1.066750000000000059e-01 -2.234019999999999895e-01 -1.397110000000000019e-01 -1.656759999999999899e-01 2.975289999999999879e-01 6.995660000000000212e-01 2.771310000000000162e-01 3.479979999999999740e-01 4.962799999999999850e-02 -4.199579999999999980e-01 -4.428860000000000019e-01 -4.236570000000000058e-01 6.512470000000000203e-01 1.900179999999999925e-01 -1.118429999999999980e-01 9.439200000000000368e-02 -2.129340000000000122e-01 -1.317669999999999952e-01 3.678910000000000236e-01 -7.777799999999999991e-02 4.157509999999999817e-01 -3.254960000000000075e-01 1.041064999999999907e+00 7.093739999999999490e-01 9.303200000000000358e-02 3.371120000000000227e-01 3.963929999999999954e-01 -1.691600000000000048e-01 -4.753109999999999835e-01 1.846889999999999921e-01 -4.339520000000000044e-01 -1.817350000000000076e-01 2.946619999999999795e-01 2.694810000000000261e-01 -1.332550000000000123e-01 -9.275780000000000136e-01 6.972070000000000212e-01 4.000020000000000242e-01 -3.424139999999999961e-01 -5.492949999999999777e-01 -2.161999999999999859e-03 -4.475939999999999919e-01 5.339199999999999502e-01 -1.752090000000000036e-01 8.425299999999999456e-02 4.360439999999999872e-01 -7.990700000000000580e-02 -1.572040000000000104e-01 -3.780149999999999899e-01 -1.637859999999999872e-01 -1.571500000000000119e-01 -3.480460000000000220e-01 5.988109999999999822e-01 -2.982529999999999903e-01 -1.764300000000000035e-01 -4.180599999999999872e-01 -5.620680000000000121e-01 4.524540000000000228e-01 -3.635979999999999768e-01 -4.161679999999999824e-01 -1.847280000000000033e-01 -4.455100000000000171e-01 1.047015999999999947e+00 -2.425960000000000061e-01 -7.273819999999999730e-01 -9.362800000000000289e-02 2.403079999999999938e-01 4.259689999999999865e-01 3.595740000000000047e-01 1.943620000000000070e-01 7.019379999999999509e-01 4.715539999999999732e-01 -2.053119999999999945e-01 -1.795140000000000069e-01 2.074100000000000110e-01 4.045819999999999972e-01 3.922619999999999996e-01 4.261920000000000153e-01 -9.546799999999999731e-02
5.168179999999999996e-01 -1.313610000000000055e-01 -1.218658000000000019e+00 -1.593690000000000107e-01 6.652299999999999880e-02 1.953129999999999866e-01 -5.690420000000000478e-01 -1.176824000000000092e+00 1.804350000000000120e-01 9.370799999999999963e-02 -5.717699999999999866e-02 -2.394100000000000047e-02 -8.759470000000000312e-01 -2.261869999999999992e-01 -4.988509999999999889e-01 4.753519999999999968e-01 2.248030000000000028e-01 1.154180000000000067e-01 -2.418059999999999932e-01 -1.726590000000000069e-01 -2.105950000000000044e-01 3.347890000000000033e-01 8.125229999999999952e-01 3.213849999999999763e-01 4.213279999999999803e-01 4.366699999999999748e-02 -4.732520000000000060e-01 -5.059249999999999581e-01 -4.797330000000000205e-01 7.523940000000000072e-01 2.067809999999999926e-01 -1.571089999999999987e-01 1.100519999999999970e-01 -2.504020000000000135e-01 -1.552360000000000129e-01 4.266940000000000177e-01 -8.753700000000000370e-02 4.814479999999999871e-01 -3.599200000000000177e-01 1.218099000000000043e+00 8.260229999999999517e-01 9.868699999999999695e-02 4.024650000000000172e-01 4.850499999999999812e-01 -1.915969999999999895e-01 -5.513259999999999827e-01 2.351199999999999957e-01 -5.193299999999999583e-01 -2.078210000000000057e-01 3.608100000000000196e-01 3.040709999999999802e-01 -1.273579999999999990e-01 -1.077685000000000004e+00 8.252789999999999848e-01 4.645529999999999937e-01 -3.929699999999999860e-01 -6.405440000000000023e-01 -1.510000000000000112e-04 -5.388779999999999681e-01 6.201330000000000453e-01 -2.189510000000000067e-01 7.448499999999999566e-02 5.279869999999999841e-01 -9.870600000000000207e-02 -1.880650000000000099e-01 -4.516649999999999832e-01 -2.091689999999999938e-01 -1.769880000000000064e-01 -3.993720000000000048e-01 7.032479999999999842e-01 -3.456879999999999953e-01 -2.053830000000000100e-01 -4.908040000000000180e-01 -6.553339999999999721e-01 5.314860000000000140e-01 -4.201759999999999939e-01 -4.915680000000000049e-01 -2.295300000000000118e-01 -5.183579999999999854e-01 1.227149000000000045e+00 -2.576280000000000237e-01 -8.531480000000000175e-01 -1.150859999999999939e-01 3.143299999999999983e-01 4.963040000000000229e-01 4.242049999999999987e-01 2.452940000000000120e-01 8.104810000000000070e-01 5.323419999999999819e-01 -2.530970000000000164e-01 -2.138929999999999998e-01 2.440450000000000119e-01 4.724050000000000193e-01 4.559250000000000247e-01 5.003969999999999807e-01 -1.077319999999999944e-01
5.630969999999999587e-01 -1.356610000000000038e-01 -1.342198000000000002e+00 -1.876939999999999997e-01 6.825000000000000511e-02 1.887590000000000101e-01 -6.107350000000000279e-01 -1.280977999999999950e+00 1.908749999999999891e-01 1.074309999999999987e-01 -5.125299999999999995e-02 -6.123800000000000077e-02 -9.815000000000000391e-01 -2.542189999999999728e-01 -5.633329999999999727e-01 5.154999999999999583e-01 2.626999999999999891e-01 1.143959999999999977e-01 -2.389259999999999995e-01 -2.051870000000000083e-01 -2.571039999999999992e-01 3.520539999999999781e-01 8.911529999999999729e-01 3.516710000000000114e-01 4.871059999999999834e-01 2.571800000000000128e-02 -4.971820000000000128e-01 -5.431550000000000544e-01 -5.080419999999999936e-01 8.179020000000000179e-01 2.063270000000000104e-01 -2.115789999999999893e-01 1.208140000000000047e-01 -2.788539999999999908e-01 -1.732960000000000056e-01 4.657209999999999961e-01 -9.191399999999999570e-02 5.248690000000000300e-01 -3.671880000000000144e-01 1.344456000000000095e+00 9.057619999999999560e-01 9.384299999999999586e-02 4.552410000000000068e-01 5.671760000000000135e-01 -2.024600000000000011e-01 -6.027609999999999912e-01 2.880389999999999895e-01 -5.920410000000000394e-01 -2.224909999999999943e-01 4.227799999999999891e-01 3.211660000000000070e-01 -9.842499999999999860e-02 -1.181400000000000006e+00 9.239749999999999908e-01 5.074149999999999494e-01 -4.237279999999999935e-01 -7.048299999999999566e-01 4.187999999999999882e-03 -6.170470000000000121e-01 6.806489999999999485e-01 -2.610419999999999963e-01 4.659599999999999853e-02 6.099689999999999834e-01 -1.155380000000000018e-01 -2.121470000000000022e-01 -5.122579999999999911e-01 -2.571399999999999797e-01 -1.855970000000000120e-01 -4.295970000000000066e-01 7.789770000000000305e-01 -3.743770000000000153e-01 -2.264160000000000061e-01 -5.465440000000000298e-01 -7.218310000000000004e-01 5.912610000000000365e-01 -4.556689999999999907e-01 -5.501909999999999856e-01 -2.722120000000000095e-01 -5.669220000000000370e-01 1.358014000000000054e+00 -2.471889999999999921e-01 -9.469880000000000519e-01 -1.362359999999999960e-01 3.969349999999999823e-01 5.438619999999999566e-01 4.729209999999999803e-01 2.976309999999999789e-01 8.809470000000000356e-01 5.601760000000000073e-01 -2.977440000000000087e-01 -2.412060000000000037e-01 2.718880000000000186e-01 5.197920000000000318e-01 5.009010000000000407e-01 5.568130000000000024e-01 -1.119099999999999956e-01
5.847590000000000288e-01 -1.318120000000000125e-01 -1.411477000000000093e+00 -2.141569999999999863e-01 6.450500000000000678e-02 1.604879999999999918e-01 -6.171919999999999629e-01 -1.322470000000000034e+00 1.880169999999999897e-01 1.173190000000000066e-01 -3.735900000000000332e-02 -1.124600000000000044e-01 -1.055449000000000082e+00 -2.716500000000000026e-01 -6.112680000000000335e-01 5.307410000000000183e-01 2.966360000000000108e-01 1.028379999999999989e-01 -2.129890000000000116e-01 -2.372340000000000004e-01 -3.047670000000000101e-01 3.479729999999999768e-01 9.324419999999999931e-01 3.667549999999999977e-01 5.443130000000000468e-01 -5.519999999999999733e-03 -4.892830000000000235e-01 -5.526969999999999938e-01 -5.063750000000000195e-01 8.442250000000000032e-01 1.874280000000000113e-01 -2.751350000000000184e-01 1.260840000000000016e-01 -2.972949999999999759e-01 -1.854270000000000085e-01 4.826579999999999759e-01 -9.053999999999999548e-02 5.437980000000000036e-01 -3.450099999999999834e-01 1.413920000000000066e+00 9.442150000000000265e-01 7.747099999999999820e-02 4.934160000000000212e-01 6.413799999999999502e-01 -2.004990000000000105e-01 -6.272309999999999830e-01 3.432589999999999808e-01 -6.505900000000000016e-01 -2.245949999999999891e-01 4.799320000000000253e-01 3.197820000000000107e-01 -4.476000000000000117e-02 -1.234448999999999907e+00 9.891689999999999650e-01 5.259719999999999951e-01 -4.329660000000000175e-01 -7.393450000000000299e-01 1.126800000000000024e-02 -6.799410000000000176e-01 7.135580000000000256e-01 -3.004680000000000129e-01 -9.460000000000000093e-04 6.804860000000000353e-01 -1.296869999999999967e-01 -2.279619999999999980e-01 -5.577619999999999800e-01 -3.075910000000000033e-01 -1.819590000000000096e-01 -4.365930000000000089e-01 8.220180000000000264e-01 -3.814239999999999853e-01 -2.391010000000000080e-01 -5.838879999999999626e-01 -7.588709999999999622e-01 6.298789999999999667e-01 -4.674619999999999886e-01 -5.902429999999999621e-01 -3.117579999999999796e-01 -5.880809999999999649e-01 1.433667000000000025e+00 -2.096379999999999910e-01 -1.005732999999999988e+00 -1.572540000000000049e-01 4.884740000000000193e-01 5.657459999999999711e-01 5.034410000000000274e-01 3.511150000000000104e-01 9.097570000000000379e-01 5.520659999999999457e-01 -3.382229999999999959e-01 -2.603030000000000066e-01 2.900479999999999725e-01 5.441340000000000066e-01 5.256650000000000489e-01 5.937500000000000000e-01 -1.067459999999999937e-01
5.816789999999999461e-01 -1.204309999999999964e-01 -1.424790000000000001e+00 -2.385069999999999968e-01 5.515899999999999970e-02 1.100160000000000027e-01 -5.869349999999999845e-01 -1.298891999999999936e+00 1.712899999999999978e-01 1.222659999999999997e-01 -1.529600000000000057e-02 -1.772829999999999961e-01 -1.097304000000000057e+00 -2.776899999999999924e-01 -6.416089999999999849e-01 5.198490000000000055e-01 3.258360000000000145e-01 8.104500000000000592e-02 -1.637399999999999967e-01 -2.691979999999999928e-01 -3.531050000000000022e-01 3.227929999999999966e-01 9.357299999999999507e-01 3.661860000000000115e-01 5.921480000000000077e-01 -5.011600000000000082e-02 -4.495359999999999912e-01 -5.345309999999999784e-01 -4.744630000000000236e-01 8.296299999999999786e-01 1.507139999999999869e-01 -3.467430000000000234e-01 1.257739999999999969e-01 -3.054760000000000253e-01 -1.914569999999999883e-01 4.769149999999999778e-01 -8.356800000000000339e-02 5.376330000000000275e-01 -2.930059999999999887e-01 1.424271000000000065e+00 9.396910000000000540e-01 4.947300000000000308e-02 5.149200000000000443e-01 7.067890000000000006e-01 -1.852749999999999952e-01 -6.244969999999999688e-01 3.994500000000000273e-01 -6.938699999999999868e-01 -2.135690000000000088e-01 5.314050000000000162e-01 2.998350000000000182e-01 3.388399999999999745e-02 -1.235824000000000034e+00 1.018723000000000045e+00 5.192809999999999926e-01 -4.202029999999999932e-01 -7.429329999999999545e-01 2.152700000000000100e-02 -7.261250000000000204e-01 7.182560000000000056e-01 -3.359619999999999829e-01 -6.844300000000000384e-02 7.385030000000000205e-01 -1.401380000000000126e-01 -2.336820000000000008e-01 -5.871659999999999657e-01 -3.601739999999999942e-01 -1.659899999999999987e-01 -4.198089999999999877e-01 8.307600000000000540e-01 -3.654569999999999763e-01 -2.441929999999999934e-01 -6.026599999999999735e-01 -7.652269999999999905e-01 6.461919999999999886e-01 -4.539469999999999894e-01 -6.107069999999999999e-01 -3.467419999999999947e-01 -5.803829999999999822e-01 1.451262000000000052e+00 -1.451020000000000088e-01 -1.027981999999999951e+00 -1.777040000000000008e-01 5.885129999999999528e-01 5.603970000000000340e-01 5.149099999999999788e-01 4.051089999999999969e-01 8.959850000000000314e-01 5.074720000000000342e-01 -3.734049999999999869e-01 -2.705489999999999839e-01 2.978069999999999884e-01 5.446499999999999675e-01 5.297929999999999584e-01 6.106510000000000549e-01 -9.156799999999999662e-02
5.540429999999999522e-01 -1.022129999999999983e-01 -1.380568999999999935e+00 -2.604980000000000073e-01 4.018100000000000144e-02 3.748699999999999949e-02 -5.194199999999999928e-01 -1.208993999999999902e+00 1.406320000000000070e-01 1.215190000000000020e-01 1.502799999999999969e-02 -2.549669999999999992e-01 -1.106317999999999913e+00 -2.718659999999999966e-01 -6.533750000000000391e-01 4.815189999999999748e-01 3.492379999999999929e-01 4.926400000000000223e-02 -9.146100000000000063e-02 -3.011389999999999900e-01 -4.013729999999999798e-01 2.771910000000000207e-01 9.003790000000000404e-01 3.496099999999999763e-01 6.295490000000000252e-01 -1.073429999999999940e-01 -3.784250000000000114e-01 -4.887540000000000218e-01 -4.123720000000000163e-01 7.727760000000000185e-01 9.702600000000000113e-02 -4.246539999999999759e-01 1.199729999999999963e-01 -3.029970000000000163e-01 -1.912459999999999993e-01 4.479079999999999728e-01 -7.126200000000000589e-02 5.063530000000000530e-01 -2.114669999999999883e-01 1.373976000000000086e+00 8.912080000000000002e-01 9.858000000000000443e-03 5.175980000000000025e-01 7.623790000000000289e-01 -1.563360000000000027e-01 -5.947010000000000352e-01 4.549119999999999830e-01 -7.204420000000000268e-01 -1.889129999999999976e-01 5.763179999999999970e-01 2.615089999999999915e-01 1.370460000000000012e-01 -1.184955999999999898e+00 1.010950999999999933e+00 4.866230000000000278e-01 -3.851289999999999991e-01 -7.150339999999999474e-01 3.513499999999999956e-02 -7.543560000000000265e-01 6.944700000000000317e-01 -3.662670000000000092e-01 -1.559210000000000040e-01 7.828119999999999523e-01 -1.460229999999999861e-01 -2.276819999999999955e-01 -5.995489999999999986e-01 -4.140019999999999811e-01 -1.378189999999999971e-01 -3.792960000000000220e-01 8.042329999999999757e-01 -3.258750000000000258e-01 -2.426030000000000131e-01 -6.024180000000000090e-01 -7.395369999999999999e-01 6.390679999999999694e-01 -4.139880000000000226e-01 -6.108369999999999633e-01 -3.755749999999999922e-01 -5.429629999999999734e-01 1.408535000000000093e+00 -5.419899999999999718e-02 -1.012469999999999981e+00 -1.971980000000000122e-01 6.961380000000000345e-01 5.268199999999999550e-01 5.066049999999999720e-01 4.587760000000000171e-01 8.393610000000000237e-01 4.265470000000000095e-01 -4.020870000000000277e-01 -2.715000000000000191e-01 2.945599999999999885e-01 5.207669999999999799e-01 5.127939999999999721e-01 6.070210000000000328e-01 -6.592900000000000149e-02
5.035669999999999868e-01 -7.839400000000000535e-02 -1.279495999999999967e+00 -2.797629999999999839e-01 1.992400000000000074e-02 -5.548999999999999766e-02 -4.164019999999999944e-01 -1.055198999999999998e+00 9.691600000000000215e-02 1.142360000000000042e-01 5.315199999999999786e-02 -3.434220000000000050e-01 -1.083428000000000058e+00 -2.548279999999999990e-01 -6.458789999999999809e-01 4.151369999999999783e-01 3.655379999999999741e-01 8.623999999999999722e-03 1.894999999999999983e-03 -3.331620000000000137e-01 -4.484870000000000245e-01 2.133740000000000081e-01 8.275759999999999783e-01 3.173770000000000202e-01 6.553710000000000369e-01 -1.749759999999999927e-01 -2.786250000000000115e-01 -4.170630000000000170e-01 -3.218710000000000182e-01 6.740289999999999893e-01 2.880699999999999927e-02 -5.057650000000000201e-01 1.092029999999999945e-01 -2.899430000000000063e-01 -1.848690000000000055e-01 3.964699999999999891e-01 -5.430999999999999717e-02 4.514630000000000032e-01 -1.027980000000000005e-01 1.264896000000000020e+00 8.001260000000000039e-01 -4.036499999999999810e-02 4.990229999999999944e-01 8.071850000000000414e-01 -1.140309999999999935e-01 -5.398810000000000553e-01 5.066469999999999585e-01 -7.288520000000000554e-01 -1.506800000000000084e-01 6.133039999999999603e-01 2.058679999999999954e-01 2.626589999999999758e-01 -1.084038000000000057e+00 9.657580000000000053e-01 4.287030000000000007e-01 -3.285549999999999859e-01 -6.566170000000000062e-01 5.219900000000000234e-02 -7.638939999999999619e-01 6.430420000000000025e-01 -3.898110000000000186e-01 -2.619159999999999822e-01 8.122160000000000490e-01 -1.462700000000000111e-01 -2.081240000000000034e-01 -5.945880000000000054e-01 -4.675480000000000191e-01 -9.847100000000000297e-02 -3.166979999999999795e-01 7.435110000000000330e-01 -2.636600000000000055e-01 -2.360730000000000051e-01 -5.833739999999999482e-01 -6.813759999999999817e-01 6.079059999999999464e-01 -3.475619999999999821e-01 -5.904439999999999689e-01 -3.959400000000000142e-01 -4.765639999999999876e-01 1.305725000000000025e+00 6.067600000000000077e-02 -9.593819999999999570e-01 -2.148889999999999967e-01 8.090270000000000516e-01 4.653070000000000261e-01 4.789869999999999961e-01 5.104649999999999466e-01 7.420919999999999739e-01 3.119089999999999918e-01 -4.228620000000000156e-01 -2.632109999999999728e-01 2.798419999999999797e-01 4.733570000000000277e-01 4.750119999999999898e-01 5.831190000000000540e-01 -2.996499999999999858e-02
4.321039999999999881e-01 -5.031000000000000055e-02 -1.123064999999999980e+00 -2.960979999999999723e-01 -5.127999999999999746e-03 -1.665540000000000076e-01 -2.808740000000000125e-01 -8.414519999999999778e-01 4.172100000000000114e-02 9.972799999999999720e-02 9.852700000000000347e-02 -4.402989999999999959e-01 -1.030062000000000033e+00 -2.275010000000000088e-01 -6.187540000000000262e-01 3.203440000000000176e-01 3.733690000000000064e-01 -3.941100000000000159e-02 1.140540000000000026e-01 -3.653230000000000088e-01 -4.932960000000000123e-01 1.338860000000000050e-01 7.190959999999999575e-01 2.700440000000000063e-01 6.683959999999999901e-01 -2.502090000000000147e-01 -1.536260000000000125e-01 -3.215219999999999745e-01 -2.053000000000000103e-01 5.343520000000000492e-01 -5.097700000000000148e-02 -5.867019999999999458e-01 9.417999999999999983e-02 -2.665830000000000144e-01 -1.725750000000000062e-01 3.238179999999999947e-01 -3.355400000000000049e-02 3.749910000000000188e-01 2.996400000000000105e-02 1.100206000000000017e+00 6.690739999999999466e-01 -1.000660000000000022e-01 4.572240000000000193e-01 8.404610000000000136e-01 -5.885300000000000253e-02 -4.626239999999999797e-01 5.514160000000000172e-01 -7.175799999999999956e-01 -9.912500000000000477e-02 6.409960000000000102e-01 1.342359999999999942e-01 4.081110000000000015e-01 -9.361230000000000384e-01 8.839900000000000535e-01 3.468820000000000237e-01 -2.516229999999999856e-01 -5.691730000000000400e-01 7.263000000000000012e-02 -7.543959999999999555e-01 5.652500000000000302e-01 -4.050690000000000124e-01 -3.845870000000000122e-01 8.255649999999999933e-01 -1.399960000000000093e-01 -1.735299999999999898e-01 -5.724639999999999729e-01 -5.189840000000000009e-01 -4.921299999999999980e-02 -2.342239999999999878e-01 6.508359999999999701e-01 -1.807030000000000025e-01 -2.266680000000000084e-01 -5.460369999999999946e-01 -5.907670000000000421e-01 5.523569999999999869e-01 -2.551260000000000194e-01 -5.497959999999999514e-01 -4.057410000000000183e-01 -3.827860000000000151e-01 1.144352000000000036e+00 1.965129999999999932e-01 -8.692729999999999624e-01 -2.296769999999999923e-01 9.246360000000000134e-01 3.769250000000000100e-01 4.328969999999999763e-01 5.585320000000000285e-01 6.070149999999999713e-01 1.668070000000000108e-01 -4.344009999999999816e-01 -2.459639999999999882e-01 2.532789999999999764e-01 4.039059999999999873e-01 4.169010000000000216e-01 5.395729999999999693e-01 1.574400000000000105e-02