3.832851919519276294e+02 -1.415589491640097232e-06 -2.831178983280194463e-06 -1.415589491640097232e-06 3.832851891207486119e+02 0.000000000000000000e+00 -2.831178983280194463e-06 0.000000000000000000e+00 3.832851947831065900e+02
3.833334564756451073e+02 2.153111616784587467e-03 -3.081738323300491512e-03 2.153111616784587467e-03 3.833305021403760406e+02 1.251381110609845913e-03 -3.081738323300491512e-03 1.251381110609845913e-03 3.833312283377852054e+02
3.831379932942289201e+02 7.542260811458437186e-03 -1.115201401514068560e-02 7.542260811458437186e-03 3.831268596828771820e+02 5.243343477034919514e-03 -1.115201401514068560e-02 5.243343477034919514e-03 3.831295648743957258e+02
3.835078132177409316e+02 1.694743739391524340e-02 -2.531357128950821600e-02 1.694743739391524340e-02 3.834844630690762983e+02 1.060559647136760826e-02 -2.531357128950821600e-02 1.060559647136760826e-02 3.834887876949732686e+02
3.836467561575243508e+02 2.732087718865387413e-02 -4.225534632545689673e-02 2.732087718865387413e-02 3.836092147242060832e+02 1.768212834007645146e-02 -4.225534632545689673e-02 1.768212834007645146e-02 3.836141338976894986e+02
3.837842127283416289e+02 3.633676666090964597e-02 -5.961896702991432984e-02 3.633676666090964597e-02 3.837331127788723961e+02 2.605958695160254940e-02 -5.961896702991432984e-02 2.605958695160254940e-02 3.837367097917706928e+02
3.839072274551651276e+02 4.260924369836692482e-02 -7.605537661734750043e-02 4.260924369836692482e-02 3.838455459742459084e+02 3.477537145163062116e-02 -7.605537661734750043e-02 3.477537145163062116e-02 3.838449344395855292e+02
3.839965794638774241e+02 4.439430204732508489e-02 -8.938739844961392234e-02 4.439430204732508489e-02 3.839299957965486669e+02 4.315566124214000043e-02 -8.938739844961392234e-02 4.315566124214000043e-02 3.839210025565083129e+02
3.840540693843119584e+02 4.050001535582318374e-02 -9.826880692016390362e-02 4.050001535582318374e-02 3.839898370111287704e+02 5.020105014203276456e-02 -9.826880692016390362e-02 5.020105014203276456e-02 3.839687730394931577e+02
3.840697187261420140e+02 3.073386345299814956e-02 -1.017143517428159005e-01 3.073386345299814956e-02 3.840169894331679643e+02 5.460353346103347105e-02 -1.017143517428159005e-01 5.460353346103347105e-02 3.839798514428547946e+02
3.840453224568430528e+02 1.515671668699051892e-02 -9.925971956431196841e-02 1.515671668699051892e-02 3.840140393446673670e+02 5.496733996038496994e-02 -9.925971956431196841e-02 5.496733996038496994e-02 3.839576677399312530e+02
3.839890697616243074e+02 -5.046576537696946529e-03 -9.134940548502711033e-02 -5.046576537696946529e-03 3.839894675422714272e+02 4.998304936032019197e-02 -9.134940548502711033e-02 4.998304936032019197e-02 3.839115393407566899e+02
3.839015438633561530e+02 -2.820845179991221530e-02 -7.893185446436018493e-02 -2.820845179991221530e-02 3.839431763503052935e+02 3.834407256005530756e-02 -7.893185446436018493e-02 3.834407256005530756e-02 3.838428506918538119e+02
3.838389974572575625e+02 -5.180915980453591058e-02 -6.334904534038598989e-02 -5.180915980453591058e-02 3.839307630460531300e+02 1.852723526658558995e-02 -6.334904534038598989e-02 1.852723526658558995e-02 3.838079153587896712e+02
3.837692173888566458e+02 -7.388810910564651280e-02 -4.648512772647751118e-02 -7.388810910564651280e-02 3.839173446732618800e+02 -9.616099416711180667e-03 -4.648512772647751118e-02 -9.616099416711180667e-03 3.837736920672397218e+02
3.837576690097839105e+02 -9.154192565589015784e-02 -3.048330411297785203e-02 -9.154192565589015784e-02 3.839654464041878441e+02 -4.661819313869167841e-02 -3.048330411297785203e-02 -4.661819313869167841e-02 3.838039106561177505e+02
3.838032793032044765e+02 -1.025155753950841991e-01 -1.723055529224326241e-02 -1.025155753950841991e-01 3.840704420923722182e+02 -9.135648343248531367e-02 -1.723055529224326241e-02 -9.135648343248531367e-02 3.838945069679932658e+02
3.838432159139426858e+02 -1.055095471699030035e-01 -8.061782154890353991e-03 -1.055095471699030035e-01 3.841644075072378541e+02 -1.412928183395813775e-01 -8.061782154890353991e-03 -1.412928183395813775e-01 3.839787501142301949e+02
3.839600770732460546e+02 -9.996185195216546193e-02 -3.799442195562020667e-03 -9.996185195216546193e-02 3.843257592286739168e+02 -1.938706432380778444e-01 -3.799442195562020667e-03 -1.938706432380778444e-01 3.841342596978343522e+02
3.840719242145700036e+02 -8.592769773204554651e-02 -4.215625506104209511e-03 -8.592769773204554651e-02 3.844675913866097972e+02 -2.450512813083255692e-01 -4.215625506104209511e-03 -2.450512813083255692e-01 3.842740236795229976e+02
4.060134647527440848e+02 -1.577385610494224721e+01 2.082995179805143238e+01 -1.577385610494224721e+01 3.925964274117626474e+02 6.651018398092956474e+00 2.082995179805143238e+01 6.651018398092956474e+00 4.099710106920122712e+02
4.060746406312895260e+02 -1.577262485366147970e+01 2.083235287764658139e+01 -1.577262485366147970e+01 3.926539821272442055e+02 6.651384143938264160e+00 2.083235287764658139e+01 6.651384143938264160e+00 4.100333577948486550e+02
4.060952257008884203e+02 -1.577407806520714573e+01 2.083327841007192305e+01 -1.577407806520714573e+01 3.926678944291310245e+02 6.655792637753078722e+00 2.083327841007192305e+01 6.655792637753078722e+00 4.100562587894755779e+02
4.062433723119091269e+02 -1.577785138971045242e+01 2.083210299785150710e+01 -1.577785138971045242e+01 3.928079080810113624e+02 6.663494240152170178e+00 2.083210299785150710e+01 6.663494240152170178e+00 4.102083825375698893e+02
4.063717016404108335e+02 -1.578436641207705904e+01 2.082924962186750051e+01 -1.578436641207705904e+01 3.929263566877837093e+02 6.673775607139537769e+00 2.082924962186750051e+01 6.673775607139537769e+00 4.103406778353331106e+02
4.064855881959523458e+02 -1.579250495512340713e+01 2.082426738170757119e+01 -1.579250495512340713e+01 3.930310437581322276e+02 6.685113728344073358e+00 2.082426738170757119e+01 6.685113728344073358e+00 4.104586825215756107e+02
4.065850543141579010e+02 -1.580111254627671258e+01 2.081727493537495022e+01 -1.580111254627671258e+01 3.931223322459491669e+02 6.696003741089280759e+00 2.081727493537495022e+01 6.696003741089280759e+00 4.105601239465411254e+02
4.066643541557172057e+02 -1.580822085865956161e+01 2.080801681916853951e+01 -1.580822085865956161e+01 3.931941329017031990e+02 6.703817021609076221e+00 2.080801681916853951e+01 6.703817021609076221e+00 4.106381813690075546e+02
4.067238436946400952e+02 -1.581221335147475138e+01 2.079753861949343019e+01 -1.581221335147475138e+01 3.932470641429876537e+02 6.707276251397900957e+00 2.079753861949343019e+01 6.707276251397900957e+00 4.106924988149653473e+02
4.067394842154447474e+02 -1.581103375132480870e+01 2.078606369259103204e+01 -1.581103375132480870e+01 3.932566684613682924e+02 6.704191143313437351e+00 2.078606369259103204e+01 6.704191143313437351e+00 4.106970050271357309e+02
4.067324582656759162e+02 -1.580315904783862635e+01 2.077453013467526333e+01 -1.580315904783862635e+01 3.932437249671785935e+02 6.694046582023932324e+00 2.077453013467526333e+01 6.694046582023932324e+00 4.106728029824025725e+02
4.067019450111463925e+02 -1.578661533023274721e+01 2.076498723926105328e+01 -1.578661533023274721e+01 3.932064621662289596e+02 6.674938455571374440e+00 2.076498723926105328e+01 6.674938455571374440e+00 4.106190774304845377e+02
4.066494158110965031e+02 -1.576163991451367075e+01 2.075744896611349333e+01 -1.576163991451367075e+01 3.931461294574947942e+02 6.648932809188798032e+00 2.075744896611349333e+01 6.648932809188798032e+00 4.105377436511519136e+02
4.066321210581288597e+02 -1.572755156414509869e+01 2.075432477068678239e+01 -1.572755156414509869e+01 3.931201321869713183e+02 6.616691335741378133e+00 2.075432477068678239e+01 6.616691335741378133e+00 4.104874898928113680e+02
4.065368568292147984e+02 -1.568632139795746738e+01 2.075411118628093377e+01 -1.568632139795746738e+01 3.930145279600565118e+02 6.580532752210245029e+00 2.075411118628093377e+01 6.580532752210245029e+00 4.103556454954605215e+02
4.066795158565794281e+02 -1.563907317704036615e+01 2.076244097810899092e+01 -1.563907317704036615e+01 3.931498078555955544e+02 6.547510927894401256e+00 2.076244097810899092e+01 6.547510927894401256e+00 4.104640863466411815e+02
4.066942099053110837e+02 -1.558865050554223686e+01 2.077230355214371471e+01 -1.558865050554223686e+01 3.931543810746383656e+02 6.513798095206699834e+00 2.077230355214371471e+01 6.513798095206699834e+00 4.104406828004710519e+02
4.067908380032742457e+02 -1.554022268447519473e+01 2.078685381529501797e+01 -1.554022268447519473e+01 3.932444522709396324e+02 6.490623489183985129e+00 2.078685381529501797e+01 6.490623489183985129e+00 4.105023277271234292e+02
4.069042234032491479e+02 -1.549808234160381915e+01 2.080427141419540860e+01 -1.549808234160381915e+01 3.933561317876207681e+02 6.480201128569227365e+00 2.080427141419540860e+01 6.480201128569227365e+00 4.105847978313342992e+02
4.070610753237787662e+02 -1.546661703109529817e+01 2.082160525450527544e+01 -1.546661703109529817e+01 3.935163242799359864e+02 6.484104278887853567e+00 2.082160525450527544e+01 6.484104278887853567e+00 4.107125073462660225e+02
3.821359997510084554e+02 5.820856202108037003e+00 -1.621288647888302492e+01 5.820856202108037003e+00 3.966974213599189625e+02 -2.001072675897986741e+01 -1.621288647888302492e+01 -2.001072675897986741e+01 3.963120243231547306e+02
3.822124278973004152e+02 5.828535901821095599e+00 -1.619856605624668688e+01 5.828535901821095599e+00 3.967774408744909920e+02 -2.001145319803613631e+01 -1.619856605624668688e+01 -2.001145319803613631e+01 3.963800040958485056e+02
3.822033502247523415e+02 5.839114318621080102e+00 -1.618800171772298668e+01 5.839114318621080102e+00 3.967793118774091568e+02 -2.000904440496390180e+01 -1.618800171772298668e+01 -2.000904440496390180e+01 3.963569509184329718e+02
3.823540792897896381e+02 5.851186440534824840e+00 -1.618147925232049289e+01 5.851186440534824840e+00 3.969460380877882244e+02 -2.000151252715182437e+01 -1.618147925232049289e+01 -2.000151252715182437e+01 3.964893148720574914e+02
3.824681414842445975e+02 5.864042722437600830e+00 -1.617946324315659012e+01 5.864042722437600830e+00 3.970792213970925673e+02 -1.998964594807182849e+01 -1.617946324315659012e+01 -1.998964594807182849e+01 3.965815670008929601e+02
3.825861596743354767e+02 5.876036006004153656e+00 -1.618097665785714412e+01 5.876036006004153656e+00 3.972164353168969342e+02 -1.997197911916272517e+01 -1.618097665785714412e+01 -1.997197911916272517e+01 3.966756746465426886e+02
3.826780176114349956e+02 5.886669328081646668e+00 -1.618555068982189837e+01 5.886669328081646668e+00 3.973255138015472880e+02 -1.994916104896121567e+01 -1.618555068982189837e+01 -1.994916104896121567e+01 3.967432391100859945e+02
3.827634980893776628e+02 5.895133187783737405e+00 -1.619125239171701836e+01 5.895133187783737405e+00 3.974242363061629817e+02 -1.992187171821182545e+01 -1.619125239171701836e+01 -1.992187171821182545e+01 3.968041797446376791e+02
3.828305698132510884e+02 5.900936253268105780e+00 -1.619698647364759125e+01 5.900936253268105780e+00 3.974991355516504541e+02 -1.989171323475570574e+01 -1.619698647364759125e+01 -1.989171323475570574e+01 3.968472325213425052e+02
3.828610014152671397e+02 5.903685740626419154e+00 -1.620162385785562620e+01 5.903685740626419154e+00 3.975318506500797753e+02 -1.986069456861861937e+01 -1.620162385785562620e+01 -1.986069456861861937e+01 3.968541759272059153e+02
3.828793411857826072e+02 5.903315481960143885e+00 -1.620402420396208854e+01 5.903315481960143885e+00 3.975474240393054401e+02 -1.983155957584836671e+01 -1.620402420396208854e+01 -1.983155957584836671e+01 3.968498764216287213e+02
3.828529247081628455e+02 5.899567844813276452e+00 -1.620424804855500867e+01 5.899567844813276452e+00 3.975131082408626071e+02 -1.980814599456003222e+01 -1.620424804855500867e+01 -1.980814599456003222e+01 3.968003025873489946e+02
3.828466331264913833e+02 5.892786339127153106e+00 -1.620215601669917049e+01 5.892786339127153106e+00 3.974962678067713568e+02 -1.979174902617176457e+01 -1.620215601669917049e+01 -1.979174902617176457e+01 3.967709690908831135e+02
3.827928217310501395e+02 5.883411614949470625e+00 -1.619799870171243228e+01 5.883411614949470625e+00 3.974305461895935991e+02 -1.978576435092332986e+01 -1.619799870171243228e+01 -1.978576435092332986e+01 3.966936272644603605e+02
3.828221693057922721e+02 5.871619650733784113e+00 -1.619416096359734425e+01 5.871619650733784113e+00 3.974466573689733195e+02 -1.979249095133194203e+01 -1.619416096359734425e+01 -1.979249095133194203e+01 3.966983251852563512e+02
3.828353367176009101e+02 5.858985805596298668e+00 -1.619048934914241045e+01 5.858985805596298668e+00 3.974480060678413338e+02 -1.981028870821049637e+01 -1.619048934914241045e+01 -1.981028870821049637e+01 3.966850859742386319e+02
3.828705521178982849e+02 5.845891600824318246e+00 -1.618896326399319818e+01 5.845891600824318246e+00 3.974729964160734994e+02 -1.983811160563105247e+01 -1.618896326399319818e+01 -1.983811160563105247e+01 3.966926741651558928e+02
3.829213324604556306e+02 5.833704037045043478e+00 -1.619141569972191519e+01 5.833704037045043478e+00 3.975145357780777999e+02 -1.987283145060327172e+01 -1.619141569972191519e+01 -1.987283145060327172e+01 3.967144490350847263e+02
3.830385115852799345e+02 5.823052413208380074e+00 -1.619876455994229403e+01 5.823052413208380074e+00 3.976229019019481825e+02 -1.990927025310979559e+01 -1.619876455994229403e+01 -1.990927025310979559e+01 3.968019103265006606e+02
3.831421769726990192e+02 5.815077069693352918e+00 -1.621201784923628608e+01 5.815077069693352918e+00 3.977167251664169498e+02 -1.994287509860030028e+01 -1.621201784923628608e+01 -1.994287509860030028e+01 3.968765758726017907e+02
3.819521119784544680e+02 4.502128183687444718e+00 -1.595290489357298647e+01 4.502128183687444718e+00 3.895980851606095712e+02 1.855618496044036547e+01 -1.595290489357298647e+01 1.855618496044036547e+01 3.812364725901563247e+02
3.820072090814065859e+02 4.499176249787373294e+00 -1.596509772558613705e+01 4.499176249787373294e+00 3.896447129740699324e+02 1.854785441892093090e+01 -1.596509772558613705e+01 1.854785441892093090e+01 3.812846804315460076e+02
3.818235393294054347e+02 4.496344658516321147e+00 -1.598626387033725393e+01 4.496344658516321147e+00 3.894423009194456426e+02 1.854201567772001980e+01 -1.598626387033725393e+01 1.854201567772001980e+01 3.810884624828271399e+02
3.821633118765884092e+02 4.494382365765480891e+00 -1.601452739860926400e+01 4.494382365765480891e+00 3.897557977154289688e+02 1.853525525356038273e+01 -1.601452739860926400e+01 1.853525525356038273e+01 3.814126754359757570e+02
3.822953872040397414e+02 4.493174692088377498e+00 -1.604591983523578236e+01 4.493174692088377498e+00 3.898535881357703943e+02 1.852921830097050204e+01 -1.604591983523578236e+01 1.852921830097050204e+01 3.815257791019110414e+02
3.824625558579089102e+02 4.492407330853922076e+00 -1.607682240657241479e+01 4.492407330853922076e+00 3.899803513979972536e+02 1.852174431581055813e+01 -1.607682240657241479e+01 1.852174431581055813e+01 3.816721567968724003e+02
3.825663308464016836e+02 4.491937286702927246e+00 -1.610330486393493032e+01 4.491937286702927246e+00 3.900390219691333868e+02 1.851218203208821222e+01 -1.610330486393493032e+01 1.851218203208821222e+01 3.817540478322268882e+02
3.826776633519968982e+02 4.491273278549865466e+00 -1.612343889366774974e+01 4.491273278549865466e+00 3.901030612373195936e+02 1.849898964835638182e+01 -1.612343889366774974e+01 1.849898964835638182e+01 3.818448187378073726e+02
3.827579163118010683e+02 4.489537513100710697e+00 -1.613500169662309247e+01 4.489537513100710697e+00 3.901351913034721974e+02 1.848215300665870231e+01 -1.613500169662309247e+01 1.848215300665870231e+01 3.819063676214705652e+02
3.828122304797667539e+02 4.485342510632646551e+00 -1.613696965255647342e+01 4.485342510632646551e+00 3.901416841422566790e+02 1.846191137645758573e+01 -1.613696965255647342e+01 1.846191137645758573e+01 3.819447116146675398e+02
3.828236163082676740e+02 4.478269195637557765e+00 -1.613091854201023523e+01 4.478269195637557765e+00 3.901069575069085431e+02 1.843913405627324309e+01 -1.613091854201023523e+01 1.843913405627324309e+01 3.819444794241833279e+02
3.828091157293686138e+02 4.467094320686349818e+00 -1.611855439872518403e+01 4.467094320686349818e+00 3.900486507952506940e+02 1.841553557462028934e+01 -1.611855439872518403e+01 1.841553557462028934e+01 3.819230187939400594e+02
3.827492785426287583e+02 4.451193519903755558e+00 -1.610362483374856168e+01 4.451193519903755558e+00 3.899481038208068640e+02 1.839404521266863668e+01 -1.610362483374856168e+01 1.839404521266863668e+01 3.818619088069238501e+02
3.827096249384689486e+02 4.429993396057387400e+00 -1.609011672759000433e+01 4.429993396057387400e+00 3.898711015277818319e+02 1.837767578353068387e+01 -1.609011672759000433e+01 1.837767578353068387e+01 3.818269145862005303e+02
3.826377832205354252e+02 4.404170699461024796e+00 -1.608242187831092096e+01 4.404170699461024796e+00 3.897655143208755817e+02 1.836984501787058832e+01 -1.608242187831092096e+01 1.836984501787058832e+01 3.817655851508607725e+02
3.826276206394636574e+02 4.374579154882892951e+00 -1.608501703171084074e+01 4.374579154882892951e+00 3.897246728641775348e+02 1.837363368699125843e+01 -1.608501703171084074e+01 1.837363368699125843e+01 3.817720156946373322e+02
3.826901988065538944e+02 4.343367940097718538e+00 -1.610072386849136450e+01 4.343367940097718538e+00 3.897592522567796323e+02 1.839124052151466060e+01 -1.610072386849136450e+01 1.839124052151466060e+01 3.818561578450522802e+02
3.827246323722054626e+02 4.312856128356494345e+00 -1.612973352106329727e+01 4.312856128356494345e+00 3.897687734824285712e+02 1.842333519277640619e+01 -1.612973352106329727e+01 1.842333519277640619e+01 3.819161182060124702e+02
3.828759455307524036e+02 4.286867783670776255e+00 -1.617135932854340297e+01 4.286867783670776255e+00 3.898975613324142273e+02 1.846818759850987490e+01 -1.617135932854340297e+01 1.846818759850987490e+01 3.820957147139702670e+02
3.830316872980471317e+02 4.268152381164755482e+00 -1.622036709446713942e+01 4.268152381164755482e+00 3.900336645984485813e+02 1.852238567123345092e+01 -1.622036709446713942e+01 1.852238567123345092e+01 3.822803528701861069e+02
3.983247463602193079e+02 -4.965187793600881250e+00 -2.646003782363408607e+00 -4.965187793600881250e+00 4.109120414616443213e+02 4.023880463703441990e+00 -2.646003782363408607e+00 4.023880463703441990e+00 4.034496218486775092e+02
3.982940490869640939e+02 -4.969295999591276214e+00 -2.642440457153965472e+00 -4.969295999591276214e+00 4.108894992838625626e+02 4.030297793617202196e+00 -2.642440457153965472e+00 4.030297793617202196e+00 4.034288160428985179e+02
3.981690637481356134e+02 -4.980305099769061883e+00 -2.636778435125820330e+00 -4.980305099769061883e+00 4.107833060609704603e+02 4.038724632702654915e+00 -2.636778435125820330e+00 4.038724632702654915e+00 4.033154641177767985e+02
3.984559260598441028e+02 -4.995143694540337798e+00 -2.630132561866596941e+00 -4.995143694540337798e+00 4.110953597022883059e+02 4.046488138663471901e+00 -2.630132561866596941e+00 4.046488138663471901e+00 4.036142970839824216e+02
3.985866528534488680e+02 -5.013098282729020916e+00 -2.621634651374932901e+00 -5.013098282729020916e+00 4.112557204851690926e+02 4.052378704037079338e+00 -2.621634651374932901e+00 4.052378704037079338e+00 4.037535162138509008e+02
3.987313835011912033e+02 -5.031490447810847755e+00 -2.611702770746188396e+00 -5.031490447810847755e+00 4.114302648910384619e+02 4.055119830625650401e+00 -2.611702770746188396e+00 4.055119830625650401e+00 4.039018673226390774e+02
3.988127505064039156e+02 -5.048502991477989532e+00 -2.600632354061081841e+00 -5.048502991477989532e+00 4.115384007323670517e+02 4.053627331095218445e+00 -2.600632354061081841e+00 4.053627331095218445e+00 4.039807510093053793e+02
3.988829606943985482e+02 -5.061698582564504001e+00 -2.589265109738271065e+00 -5.061698582564504001e+00 4.116292801575561384e+02 4.047994573763748605e+00 -2.589265109738271065e+00 4.047994573763748605e+00 4.040425901004938964e+02
3.989090020937684926e+02 -5.068947865998028490e+00 -2.578000988632315416e+00 -5.068947865998028490e+00 4.116681673652095128e+02 4.038816607463633801e+00 -2.578000988632315416e+00 4.038816607463633801e+00 4.040549384089338218e+02
3.989034571305269878e+02 -5.068907452845476946e+00 -2.567658008693133986e+00 -5.068907452845476946e+00 4.116663585282435633e+02 4.027094006109767754e+00 -2.567658008693133986e+00 4.027094006109767754e+00 4.040315865745440647e+02
3.988455213924521559e+02 -5.060300844909019879e+00 -2.559157311087501441e+00 -5.060300844909019879e+00 4.116025182892252587e+02 4.015021621952784336e+00 -2.559157311087501441e+00 4.015021621952784336e+00 4.039541048062041568e+02
3.987818469867149815e+02 -5.043160093999301985e+00 -2.553577508921443417e+00 -5.043160093999301985e+00 4.115243745813177156e+02 4.004716268052185058e+00 -2.553577508921443417e+00 4.004716268052185058e+00 4.038709791320769682e+02
3.986931387233077544e+02 -5.018492741816136693e+00 -2.551633496928024325e+00 -5.018492741816136693e+00 4.114136104915163514e+02 3.998769960399196410e+00 -2.551633496928024325e+00 3.998769960399196410e+00 4.037657697604158784e+02
3.986604096439691034e+02 -4.987849817283307452e+00 -2.554292403654507382e+00 -4.987849817283307452e+00 4.113535119530015436e+02 3.999986535646691266e+00 -2.554292403654507382e+00 3.999986535646691266e+00 4.037221834786107593e+02
3.986341466690386710e+02 -4.954807187623117670e+00 -2.561283879045894274e+00 -4.954807187623117670e+00 4.112952640581621608e+02 4.009963010098941183e+00 -2.561283879045894274e+00 4.009963010098941183e+00 4.036920129698956998e+02
3.987090433891722228e+02 -4.922705208927485643e+00 -2.572691536521256594e+00 -4.922705208927485643e+00 4.113362987371286295e+02 4.030602982596814599e+00 -2.572691536521256594e+00 4.030602982596814599e+00 4.037722456197230372e+02
3.988667229684148197e+02 -4.896141225688374732e+00 -2.587085586614466415e+00 -4.896141225688374732e+00 4.114588369898922906e+02 4.061546915438301930e+00 -2.587085586614466415e+00 4.061546915438301930e+00 4.039442105516140487e+02
3.990076018246518856e+02 -4.879040887931208381e+00 -2.602906639059834770e+00 -4.879040887931208381e+00 4.115639752901470843e+02 4.100468962016224239e+00 -2.602906639059834770e+00 4.100468962016224239e+00 4.041072622930319653e+02
3.992231488576770175e+02 -4.874405917400661536e+00 -2.618680310567730096e+00 -4.874405917400661536e+00 4.117423589455088404e+02 4.144707428490128187e+00 -2.618680310567730096e+00 4.144707428490128187e+00 4.043506275105823420e+02
3.994225153005548918e+02 -4.882963750842659323e+00 -2.633314052462278898e+00 -4.882963750842659323e+00 4.119035168429848000e+02 4.189368142730343969e+00 -2.633314052462278898e+00 4.189368142730343969e+00 4.045800376484896219e+02
4.414483225630361289e+02 1.536970845983128697e+01 -1.016662023452501451e+01 1.536970845983128697e+01 4.368395525522033722e+02 -1.328745815274557351e+01 -1.016662023452501451e+01 -1.328745815274557351e+01 4.456030787429659199e+02
4.414573762972320310e+02 1.536851703617661613e+01 -1.015862358350339534e+01 1.536851703617661613e+01 4.368535633144294366e+02 -1.328569544280546033e+01 -1.015862358350339534e+01 -1.328569544280546033e+01 4.456124092999699542e+02
4.415344076714971493e+02 1.536394538891854111e+01 -1.015653791362044522e+01 1.536394538891854111e+01 4.369356154945286335e+02 -1.328006264144948823e+01 -1.015653791362044522e+01 -1.328006264144948823e+01 4.456881434065655299e+02
4.415925933832154442e+02 1.535617806659582740e+01 -1.016143523477045818e+01 1.535617806659582740e+01 4.369977418603393744e+02 -1.327232924349051757e+01 -1.016143523477045818e+01 -1.327232924349051757e+01 4.457414127994900923e+02
4.417179384793495274e+02 1.534537519220534385e+01 -1.017241315887785724e+01 1.534537519220534385e+01 4.371259691704170791e+02 -1.326397706513686536e+01 -1.017241315887785724e+01 -1.326397706513686536e+01 4.458584260718887435e+02
4.418333193113649031e+02 1.533205513002508980e+01 -1.018794508957418721e+01 1.533205513002508980e+01 4.372422768160498663e+02 -1.325650556326599450e+01 -1.018794508957418721e+01 -1.325650556326599450e+01 4.459610608419583855e+02
4.419203909403235002e+02 1.531758842435030665e+01 -1.020615840198080271e+01 1.531758842435030665e+01 4.373279928274333770e+02 -1.325163131068332589e+01 -1.020615840198080271e+01 -1.325163131068332589e+01 4.460292732386247394e+02
4.420123354648903273e+02 1.530312850354827425e+01 -1.022414509963761375e+01 1.530312850354827425e+01 4.374167973128919584e+02 -1.324948186299653763e+01 -1.022414509963761375e+01 -1.324948186299653763e+01 4.460975127747821034e+02
4.420673444991876408e+02 1.529059005870866983e+01 -1.023983986727991002e+01 1.529059005870866983e+01 4.374668696737774098e+02 -1.325028790587908212e+01 -1.023983986727991002e+01 -1.325028790587908212e+01 4.461232722226598071e+02
4.421168754272277965e+02 1.528125814473010813e+01 -1.025149356471308160e+01 1.528125814473010813e+01 4.375106144623374007e+02 -1.325325832316846508e+01 -1.025149356471308160e+01 -1.325325832316846508e+01 4.461400634257382762e+02
4.421228800396103793e+02 1.527620884243052224e+01 -1.025808303312662062e+01 1.527620884243052224e+01 4.375104855497552307e+02 -1.325683395110703167e+01 -1.025808303312662062e+01 -1.325683395110703167e+01 4.461121626720210429e+02
4.421198336317461894e+02 1.527789556179584984e+01 -1.026040074565757720e+01 1.527789556179584984e+01 4.375016231489708503e+02 -1.325920865656907743e+01 -1.026040074565757720e+01 -1.325920865656907743e+01 4.460747929498957660e+02
4.420896110945743658e+02 1.528548104952889730e+01 -1.025935587525427728e+01 1.528548104952889730e+01 4.374669972293850719e+02 -1.325824656161331028e+01 -1.025935587525427728e+01 -1.325824656161331028e+01 4.460144428637706255e+02
4.420662385649296198e+02 1.529994368428003249e+01 -1.025759859321236256e+01 1.529994368428003249e+01 4.374413585522422636e+02 -1.325151053994839856e+01 -1.025759859321236256e+01 -1.325151053994839856e+01 4.459677100172521023e+02
4.420624960291214620e+02 1.532084516326968426e+01 -1.025790934038425384e+01 1.532084516326968426e+01 4.374373581912697091e+02 -1.323693391933508678e+01 -1.025790934038425384e+01 -1.323693391933508678e+01 4.459489783405675212e+02
4.420484866238699055e+02 1.534615409559689425e+01 -1.026293286016739259e+01 1.534615409559689425e+01 4.374265295343627713e+02 -1.321334563073694923e+01 -1.026293286016739259e+01 -1.321334563073694923e+01 4.459303470799995353e+02
4.421095871169210909e+02 1.537444701495898158e+01 -1.027628141881318946e+01 1.537444701495898158e+01 4.374934310936140491e+02 -1.318016217509759613e+01 -1.027628141881318946e+01 -1.318016217509759613e+01 4.459973381995711179e+02
4.421633911578182961e+02 1.540228399087235545e+01 -1.029847609454874480e+01 1.540228399087235545e+01 4.375549970289357589e+02 -1.313861704228274263e+01 -1.029847609454874480e+01 -1.313861704228274263e+01 4.460653511209787325e+02
4.422957423135526369e+02 1.542551268121481378e+01 -1.032949517578126120e+01 1.542551268121481378e+01 4.376961766610907603e+02 -1.309115821438012084e+01 -1.032949517578126120e+01 -1.309115821438012084e+01 4.462176986536780419e+02
4.424281111099562622e+02 1.544019107491935650e+01 -1.036597336562738469e+01 1.544019107491935650e+01 4.378370550448956919e+02 -1.304178062446416675e+01 -1.036597336562738469e+01 -1.304178062446416675e+01 4.463706473261029259e+02
4.076861112443913839e+02 1.874371190680970400e+01 1.786843980273971155e+01 1.874371190680970400e+01 4.267511891018266965e+02 1.233163899158228549e+00 1.786843980273971155e+01 1.233163899158228549e+00 4.256171482693467283e+02
4.077155847349924329e+02 1.873995000812161038e+01 1.786722811019781432e+01 1.873995000812161038e+01 4.267867761947296117e+02 1.237728078915021568e+00 1.786722811019781432e+01 1.237728078915021568e+00 4.256470739046050085e+02
4.075521027361228903e+02 1.873545337436544500e+01 1.786508593703500836e+01 1.873545337436544500e+01 4.266314617479769709e+02 1.240356858980320442e+00 1.786508593703500836e+01 1.240356858980320442e+00 4.254883380461471347e+02
4.078644685267871637e+02 1.872937147732920948e+01 1.785943550730891261e+01 1.872937147732920948e+01 4.269515691374072048e+02 1.236516386373124554e+00 1.785943550730891261e+01 1.236516386373124554e+00 4.258094282988109285e+02
4.079768113107313638e+02 1.872175256415621192e+01 1.785182900054419619e+01 1.872175256415621192e+01 4.270718010185269122e+02 1.229003616915401276e+00 1.785182900054419619e+01 1.229003616915401276e+00 4.259349508238167346e+02
4.081037509232605771e+02 1.871145524528479953e+01 1.784135661346707025e+01 1.871145524528479953e+01 4.272040919284936535e+02 1.217440844399551025e+00 1.784135661346707025e+01 1.217440844399551025e+00 4.260775872997981537e+02
4.081962972150612359e+02 1.869818038842647567e+01 1.782852287334754848e+01 1.869818038842647567e+01 4.272985295083119581e+02 1.202382221728694134e+00 1.782852287334754848e+01 1.202382221728694134e+00 4.261869897649803534e+02
4.082854220951566049e+02 1.868169916427298105e+01 1.781385574178237619e+01 1.868169916427298105e+01 4.273844783478879776e+02 1.185022899567022447e+00 1.781385574178237619e+01 1.185022899567022447e+00 4.262918239149362876e+02
4.083453436686534701e+02 1.866198262453833578e+01 1.779853520604785544e+01 1.866198262453833578e+01 4.274356520250584026e+02 1.167565704628928946e+00 1.779853520604785544e+01 1.167565704628928946e+00 4.263645544157361087e+02
4.083483115572117299e+02 1.863932025208237775e+01 1.778408725436228011e+01 1.863932025208237775e+01 4.274240189495623099e+02 1.152496054039602091e+00 1.778408725436228011e+01 1.152496054039602091e+00 4.263759186857194550e+02
4.083429409609167351e+02 1.861549856969725525e+01 1.777218675184328234e+01 1.861549856969725525e+01 4.273985375654474410e+02 1.140741671440334670e+00 1.777218675184328234e+01 1.140741671440334670e+00 4.263732389015312378e+02