7.525199384000000435e+00 0.000000000000000000e+00 0.000000000000000000e+00 0.000000000000000000e+00 7.525199384000000435e+00 0.000000000000000000e+00 0.000000000000000000e+00 0.000000000000000000e+00 7.525199384000000435e+00
7.491599691000000227e+00 0.000000000000000000e+00 0.000000000000000000e+00 -1.911632109999999996e-01 7.609035545000000234e+00 0.000000000000000000e+00 1.659339129999999884e-01 -1.740931669999999931e-01 7.446208440000000373e+00
7.424689814999999804e+00 0.000000000000000000e+00 0.000000000000000000e+00 1.240768869999999968e-01 7.336097041000000374e+00 0.000000000000000000e+00 1.691692890000000005e-01 7.511948200000000131e-02 7.469596902000000149e+00
7.491183495999999664e+00 0.000000000000000000e+00 0.000000000000000000e+00 0.000000000000000000e+00 7.491183495999999664e+00 0.000000000000000000e+00 0.000000000000000000e+00 0.000000000000000000e+00 7.491183495999999664e+00
7.442710341999999812e+00 0.000000000000000000e+00 0.000000000000000000e+00 -1.899157009999999923e-01 7.559379823000000442e+00 0.000000000000000000e+00 1.648510470000000006e-01 -1.729570539999999990e-01 7.397615309999999944e+00
7.443703915000000393e+00 0.000000000000000000e+00 0.000000000000000000e+00 -1.899410539999999981e-01 7.560388971000000069e+00 0.000000000000000000e+00 1.648730539999999911e-01 -1.729801430000000029e-01 7.398602862999999807e+00
7.601005222999999589e+00 0.000000000000000000e+00 0.000000000000000000e+00 1.278944439999999960e-01 7.419886534999999839e+00 0.000000000000000000e+00 1.111502290000000032e-01 9.019145200000000528e-02 7.437950262000000201e+00
7.497840854999999749e+00 0.000000000000000000e+00 0.000000000000000000e+00 -1.913224669999999961e-01 7.615374543999999801e+00 0.000000000000000000e+00 1.660721510000000012e-01 -1.742382020000000087e-01 7.452411790000000202e+00
7.593845929000000439e+00 0.000000000000000000e+00 0.000000000000000000e+00 1.277739820000000082e-01 7.412897833999999797e+00 0.000000000000000000e+00 1.110455379999999992e-01 9.010650100000000551e-02 7.430944547000000178e+00
7.536435224999999960e+00 0.000000000000000000e+00 0.000000000000000000e+00 1.259443080000000048e-01 7.446509083999999667e+00 0.000000000000000000e+00 1.717153740000000040e-01 7.625006900000000365e-02 7.582018187000000076e+00
7.557581713000000256e+00 0.000000000000000000e+00 0.000000000000000000e+00 1.271638009999999930e-01 7.377497731000000059e+00 0.000000000000000000e+00 1.105152419999999996e-01 8.967619999999999758e-02 7.395458263000000088e+00
7.536292776999999887e+00 0.000000000000000000e+00 0.000000000000000000e+00 1.268055929999999942e-01 7.356716073000000300e+00 0.000000000000000000e+00 1.102039320000000044e-01 8.942359099999999672e-02 7.374626012000000230e+00
7.548206099999999807e+00 0.000000000000000000e+00 0.000000000000000000e+00 0.000000000000000000e+00 7.548206099999999807e+00 0.000000000000000000e+00 0.000000000000000000e+00 0.000000000000000000e+00 7.548206099999999807e+00
7.671692789999999817e+00 0.000000000000000000e+00 0.000000000000000000e+00 1.290838320000000095e-01 7.488889740000000295e+00 0.000000000000000000e+00 1.121839000000000031e-01 9.103021099999999977e-02 7.507121456000000137e+00
7.647687634999999595e+00 0.000000000000000000e+00 0.000000000000000000e+00 1.188989770000000029e-01 7.240835816999999786e+00 0.000000000000000000e+00 1.538244559999999983e-01 -1.678117600000000043e-01 7.454186292000000158e+00
7.534100765999999894e+00 0.000000000000000000e+00 0.000000000000000000e+00 1.259052959999999999e-01 7.444202480000000399e+00 0.000000000000000000e+00 1.716621839999999954e-01 7.622645000000000115e-02 7.579669608999999753e+00
7.513671019000000229e+00 0.000000000000000000e+00 0.000000000000000000e+00 -1.917264049999999886e-01 7.631452856000000118e+00 0.000000000000000000e+00 1.664227779999999934e-01 -1.746060710000000016e-01 7.468146039999999708e+00
7.653274363000000413e+00 0.000000000000000000e+00 0.000000000000000000e+00 1.189858339999999987e-01 7.246125334000000251e+00 0.000000000000000000e+00 1.539368259999999988e-01 -1.679343490000000105e-01 7.459631663999999773e+00
7.572715410999999897e+00 0.000000000000000000e+00 0.000000000000000000e+00 0.000000000000000000e+00 7.572715410999999897e+00 0.000000000000000000e+00 0.000000000000000000e+00 0.000000000000000000e+00 7.572715410999999897e+00
7.605136836999999872e+00 0.000000000000000000e+00 0.000000000000000000e+00 1.279639629999999861e-01 7.423919699999999899e+00 0.000000000000000000e+00 1.112106459999999963e-01 9.024047600000000002e-02 7.441993246000000006e+00
7.484352356999999678e+00 0.000000000000000000e+00 0.000000000000000000e+00 0.000000000000000000e+00 7.484352356999999678e+00 0.000000000000000000e+00 0.000000000000000000e+00 0.000000000000000000e+00 7.484352356999999678e+00
7.531595642000000090e+00 0.000000000000000000e+00 0.000000000000000000e+00 0.000000000000000000e+00 7.531595642000000090e+00 0.000000000000000000e+00 0.000000000000000000e+00 0.000000000000000000e+00 7.531595642000000090e+00
7.554446751999999599e+00 0.000000000000000000e+00 0.000000000000000000e+00 1.262453050000000021e-01 7.464305694000000102e+00 0.000000000000000000e+00 1.721257609999999882e-01 7.643230099999999416e-02 7.600138654000000216e+00
7.499284397000000268e+00 0.000000000000000000e+00 0.000000000000000000e+00 -1.913593020000000089e-01 7.616840714000000290e+00 0.000000000000000000e+00 1.661041239999999919e-01 -1.742717480000000041e-01 7.453846584999999969e+00
7.495517111999999926e+00 0.000000000000000000e+00 0.000000000000000000e+00 0.000000000000000000e+00 7.495517111999999926e+00 0.000000000000000000e+00 0.000000000000000000e+00 0.000000000000000000e+00 7.495517111999999926e+00
7.475689424999999666e+00 0.000000000000000000e+00 0.000000000000000000e+00 0.000000000000000000e+00 7.475689424999999666e+00 0.000000000000000000e+00 0.000000000000000000e+00 0.000000000000000000e+00 7.475689424999999666e+00
7.597182757999999758e+00 0.000000000000000000e+00 0.000000000000000000e+00 -1.938573749999999984e-01 7.716273698000000181e+00 0.000000000000000000e+00 1.682725069999999878e-01 -1.765467540000000002e-01 7.551151785000000061e+00
7.544601566999999953e+00 0.000000000000000000e+00 0.000000000000000000e+00 0.000000000000000000e+00 7.544601566999999953e+00 0.000000000000000000e+00 0.000000000000000000e+00 0.000000000000000000e+00 7.544601566999999953e+00
7.528693728000000362e+00 0.000000000000000000e+00 0.000000000000000000e+00 1.258149369999999878e-01 7.438859960000000271e+00 0.000000000000000000e+00 1.715389860000000044e-01 7.617174399999999956e-02 7.574229866999999672e+00
7.524970502999999589e+00 0.000000000000000000e+00 0.000000000000000000e+00 1.257527159999999866e-01 7.435181161000000039e+00 0.000000000000000000e+00 1.714541539999999975e-01 7.613407499999999550e-02 7.570484121999999871e+00
7.553236379000000333e+00 0.000000000000000000e+00 0.000000000000000000e+00 -1.927359949999999933e-01 7.671638429999999786e+00 0.000000000000000000e+00 1.672991239999999935e-01 -1.755255079999999968e-01 7.507471674999999678e+00
7.436347254000000184e+00 0.000000000000000000e+00 0.000000000000000000e+00 0.000000000000000000e+00 7.436347254000000184e+00 0.000000000000000000e+00 0.000000000000000000e+00 0.000000000000000000e+00 7.436347254000000184e+00
7.652169136000000371e+00 0.000000000000000000e+00 0.000000000000000000e+00 1.287553280000000022e-01 7.469831301000000146e+00 0.000000000000000000e+00 1.118984029999999935e-01 9.079854900000000617e-02 7.488016618999999707e+00
7.470449742999999643e+00 0.000000000000000000e+00 0.000000000000000000e+00 1.248415989999999975e-01 7.381310952999999841e+00 0.000000000000000000e+00 1.702119149999999914e-01 7.558245900000000461e-02 7.515633602000000302e+00
7.577496510999999657e+00 0.000000000000000000e+00 0.000000000000000000e+00 1.178077119999999950e-01 7.174378813999999771e+00 0.000000000000000000e+00 1.524126419999999871e-01 -1.662715700000000074e-01 7.385771140000000123e+00
7.700399130000000092e+00 0.000000000000000000e+00 0.000000000000000000e+00 1.197184849999999995e-01 7.290743095999999923e+00 0.000000000000000000e+00 1.548846869999999931e-01 -1.689683989999999914e-01 7.505564083000000331e+00
7.478292292999999979e+00 0.000000000000000000e+00 0.000000000000000000e+00 1.258296770000000009e-01 7.300097639999999721e+00 0.000000000000000000e+00 1.093557859999999965e-01 8.873537400000000575e-02 7.317869740999999983e+00
7.512850195999999592e+00 0.000000000000000000e+00 0.000000000000000000e+00 -1.917054599999999942e-01 7.630619165999999787e+00 0.000000000000000000e+00 1.664045979999999869e-01 -1.745869959999999943e-01 7.467330189000000118e+00
7.556103121999999672e+00 0.000000000000000000e+00 0.000000000000000000e+00 -1.928091459999999868e-01 7.674550111000000285e+00 0.000000000000000000e+00 1.673626209999999892e-01 -1.755921269999999867e-01 7.510321047999999777e+00
7.441084760999999936e+00 0.000000000000000000e+00 0.000000000000000000e+00 1.243508690000000028e-01 7.352296359000000336e+00 0.000000000000000000e+00 1.695428429999999986e-01 7.528535899999999614e-02 7.486091009999999990e+00
7.597828417999999751e+00 0.000000000000000000e+00 0.000000000000000000e+00 1.181238129999999942e-01 7.193629076999999761e+00 0.000000000000000000e+00 1.528215950000000045e-01 -1.667177089999999917e-01 7.405588609999999683e+00
7.663319446000000035e+00 0.000000000000000000e+00 0.000000000000000000e+00 1.289429430000000043e-01 7.480715917999999576e+00 0.000000000000000000e+00 1.120614550000000043e-01 9.093085500000000487e-02 7.498927734999999650e+00
7.627143628999999869e+00 0.000000000000000000e+00 0.000000000000000000e+00 1.283342490000000113e-01 7.445402107999999686e+00 0.000000000000000000e+00 1.115324530000000036e-01 9.050160299999999991e-02 7.463527952999999826e+00
7.645765856999999777e+00 0.000000000000000000e+00 0.000000000000000000e+00 1.188690990000000058e-01 7.239016276000000083e+00 0.000000000000000000e+00 1.537858009999999997e-01 -1.677695909999999957e-01 7.452313138000000059e+00
7.564931102000000074e+00 0.000000000000000000e+00 0.000000000000000000e+00 0.000000000000000000e+00 7.564931102000000074e+00 0.000000000000000000e+00 0.000000000000000000e+00 0.000000000000000000e+00 7.564931102000000074e+00
7.772076002999999567e+00 0.000000000000000000e+00 0.000000000000000000e+00 1.208328490000000061e-01 7.358606808000000221e+00 0.000000000000000000e+00 1.563263850000000121e-01 -1.705411910000000086e-01 7.575427393000000009e+00
7.475442193000000124e+00 0.000000000000000000e+00 0.000000000000000000e+00 0.000000000000000000e+00 7.475442193000000124e+00 0.000000000000000000e+00 0.000000000000000000e+00 0.000000000000000000e+00 7.475442193000000124e+00
7.671103210000000061e+00 0.000000000000000000e+00 0.000000000000000000e+00 1.192630199999999974e-01 7.263005698999999815e+00 0.000000000000000000e+00 1.542954330000000096e-01 -1.683255640000000108e-01 7.477009406999999719e+00
7.425651500999999932e+00 0.000000000000000000e+00 0.000000000000000000e+00 0.000000000000000000e+00 7.425651500999999932e+00 0.000000000000000000e+00 0.000000000000000000e+00 0.000000000000000000e+00 7.425651500999999932e+00
7.526332823999999810e+00 0.000000000000000000e+00 0.000000000000000000e+00 1.266380069999999969e-01 7.346993448000000093e+00 0.000000000000000000e+00 1.100582870000000046e-01 8.930540900000000226e-02 7.364879716999999992e+00
7.427876018000000080e+00 0.000000000000000000e+00 0.000000000000000000e+00 0.000000000000000000e+00 7.427876018000000080e+00 0.000000000000000000e+00 0.000000000000000000e+00 0.000000000000000000e+00 7.427876018000000080e+00
7.520111593000000205e+00 0.000000000000000000e+00 0.000000000000000000e+00 1.256715170000000104e-01 7.430380228999999837e+00 0.000000000000000000e+00 1.713434450000000109e-01 7.608491400000000349e-02 7.565595823999999858e+00
7.511091501000000115e+00 0.000000000000000000e+00 0.000000000000000000e+00 -1.916605839999999950e-01 7.628832903000000165e+00 0.000000000000000000e+00 1.663656440000000070e-01 -1.745461269999999954e-01 7.465582151000000444e+00
7.469335824999999929e+00 0.000000000000000000e+00 0.000000000000000000e+00 1.248229839999999979e-01 7.380210326000000265e+00 0.000000000000000000e+00 1.701865340000000004e-01 7.557118899999999695e-02 7.514512947000000054e+00
7.466201901999999890e+00 0.000000000000000000e+00 0.000000000000000000e+00 -1.905151360000000016e-01 7.583239629000000370e+00 0.000000000000000000e+00 1.653713689999999903e-01 -1.735029620000000106e-01 7.420964535999999612e+00
7.329469546000000335e+00 0.000000000000000000e+00 0.000000000000000000e+00 0.000000000000000000e+00 7.329469546000000335e+00 0.000000000000000000e+00 0.000000000000000000e+00 0.000000000000000000e+00 7.329469546000000335e+00
7.596064236000000136e+00 0.000000000000000000e+00 0.000000000000000000e+00 1.269407909999999973e-01 7.505426590999999981e+00 0.000000000000000000e+00 1.730740030000000040e-01 7.685336700000000576e-02 7.642007855000000127e+00
7.563063634999999785e+00 0.000000000000000000e+00 0.000000000000000000e+00 1.272560389999999875e-01 7.382849028999999952e+00 0.000000000000000000e+00 1.105954049999999939e-01 8.974124699999999621e-02 7.400822587999999591e+00
7.674722140000000081e+00 0.000000000000000000e+00 0.000000000000000000e+00 1.291348039999999919e-01 7.491846906000000139e+00 0.000000000000000000e+00 1.122281980000000012e-01 9.106615599999999533e-02 7.510085820999999662e+00
7.415695977999999577e+00 0.000000000000000000e+00 0.000000000000000000e+00 -1.892263750000000022e-01 7.531941991000000058e+00 0.000000000000000000e+00 1.642526970000000031e-01 -1.723292820000000003e-01 7.370764624999999626e+00
7.500757346000000325e+00 0.000000000000000000e+00 0.000000000000000000e+00 1.253480810000000001e-01 7.411256919999999582e+00 0.000000000000000000e+00 1.709024640000000039e-01 7.588909700000000258e-02 7.546124515999999893e+00
7.452978191999999780e+00 0.000000000000000000e+00 0.000000000000000000e+00 1.245496249999999971e-01 7.364047875999999881e+00 0.000000000000000000e+00 1.698138309999999984e-01 7.540569099999999692e-02 7.498056377000000161e+00
7.475979617000000133e+00 0.000000000000000000e+00 0.000000000000000000e+00 0.000000000000000000e+00 7.475979617000000133e+00 0.000000000000000000e+00 0.000000000000000000e+00 0.000000000000000000e+00 7.475979617000000133e+00
7.653153521000000126e+00 0.000000000000000000e+00 0.000000000000000000e+00 1.287718909999999994e-01 7.470792228999999729e+00 0.000000000000000000e+00 1.119127979999999939e-01 9.081022900000000619e-02 7.488979887000000168e+00
7.661327735999999611e+00 0.000000000000000000e+00 0.000000000000000000e+00 1.289094299999999915e-01 7.478771668000000261e+00 0.000000000000000000e+00 1.120323309999999989e-01 9.090722199999999587e-02 7.496978751000000329e+00
7.740878606999999967e+00 0.000000000000000000e+00 0.000000000000000000e+00 1.203478219999999932e-01 7.329069092000000119e+00 0.000000000000000000e+00 1.556988850000000091e-01 -1.698566320000000074e-01 7.545019350999999652e+00
7.421978698000000207e+00 0.000000000000000000e+00 0.000000000000000000e+00 1.240315800000000024e-01 7.333418273000000376e+00 0.000000000000000000e+00 1.691075170000000127e-01 7.509205200000000635e-02 7.466869387000000025e+00
7.567506999999999984e+00 0.000000000000000000e+00 0.000000000000000000e+00 1.176524050000000016e-01 7.164920738000000178e+00 0.000000000000000000e+00 1.522117139999999980e-01 -1.660523720000000036e-01 7.376034383000000361e+00
7.466169225999999881e+00 0.000000000000000000e+00 0.000000000000000000e+00 -1.905143019999999965e-01 7.583206439999999660e+00 0.000000000000000000e+00 1.653706450000000105e-01 -1.735022019999999943e-01 7.420932056999999915e+00
7.539640035999999768e+00 0.000000000000000000e+00 0.000000000000000000e+00 1.268619139999999923e-01 7.359983573000000057e+00 0.000000000000000000e+00 1.102528799999999976e-01 8.946330900000000474e-02 7.377901467000000046e+00
7.472725915999999913e+00 0.000000000000000000e+00 0.000000000000000000e+00 -1.906816090000000019e-01 7.589865911999999604e+00 0.000000000000000000e+00 1.655158720000000083e-01 -1.736545700000000081e-01 7.427449021000000151e+00
7.553806586000000323e+00 0.000000000000000000e+00 0.000000000000000000e+00 1.271002800000000099e-01 7.373812559000000100e+00 0.000000000000000000e+00 1.104600379999999965e-01 8.963140499999999733e-02 7.391764119000000299e+00
7.381668558000000324e+00 0.000000000000000000e+00 0.000000000000000000e+00 -1.883580980000000016e-01 7.497381168000000429e+00 0.000000000000000000e+00 1.634990119999999991e-01 -1.715385379999999904e-01 7.336943374999999712e+00
7.553965210000000319e+00 0.000000000000000000e+00 0.000000000000000000e+00 0.000000000000000000e+00 7.553965210000000319e+00 0.000000000000000000e+00 0.000000000000000000e+00 0.000000000000000000e+00 7.553965210000000319e+00
7.465786730999999676e+00 0.000000000000000000e+00 0.000000000000000000e+00 -1.905045419999999989e-01 7.582817948999999835e+00 0.000000000000000000e+00 1.653621730000000012e-01 -1.734933140000000096e-01 7.420551879999999656e+00
7.625894044999999899e+00 0.000000000000000000e+00 0.000000000000000000e+00 1.185601510000000025e-01 7.220201631000000120e+00 0.000000000000000000e+00 1.533861029999999959e-01 -1.673335479999999986e-01 7.432944122000000320e+00
7.445364810000000055e+00 0.000000000000000000e+00 0.000000000000000000e+00 1.244223950000000051e-01 7.356525337999999969e+00 0.000000000000000000e+00 1.696403619999999890e-01 7.532866200000000456e-02 7.490396946999999805e+00
7.565761820999999721e+00 0.000000000000000000e+00 0.000000000000000000e+00 0.000000000000000000e+00 7.565761820999999721e+00 0.000000000000000000e+00 0.000000000000000000e+00 0.000000000000000000e+00 7.565761820999999721e+00
7.540451491999999867e+00 0.000000000000000000e+00 0.000000000000000000e+00 -1.924097630000000114e-01 7.658653131000000336e+00 0.000000000000000000e+00 1.670159479999999974e-01 -1.752284070000000027e-01 7.494764251000000321e+00
7.540119479000000347e+00 0.000000000000000000e+00 0.000000000000000000e+00 0.000000000000000000e+00 7.540119479000000347e+00 0.000000000000000000e+00 0.000000000000000000e+00 0.000000000000000000e+00 7.540119479000000347e+00
7.558281695999999883e+00 0.000000000000000000e+00 0.000000000000000000e+00 0.000000000000000000e+00 7.558281695999999883e+00 0.000000000000000000e+00 0.000000000000000000e+00 0.000000000000000000e+00 7.558281695999999883e+00
7.464591897000000031e+00 0.000000000000000000e+00 0.000000000000000000e+00 1.247437059999999959e-01 7.375523003999999716e+00 0.000000000000000000e+00 1.700784459999999942e-01 7.552319300000000235e-02 7.509740325000000105e+00
7.568858762999999712e+00 0.000000000000000000e+00 0.000000000000000000e+00 1.264861499999999916e-01 7.478545739000000303e+00 0.000000000000000000e+00 1.724541340000000089e-01 7.657811500000000215e-02 7.614637833999999827e+00
7.735762957000000384e+00 0.000000000000000000e+00 0.000000000000000000e+00 1.202682880000000010e-01 7.324225591000000257e+00 0.000000000000000000e+00 1.555959899999999896e-01 -1.697443800000000003e-01 7.540033136999999996e+00
7.438777828000000092e+00 0.000000000000000000e+00 0.000000000000000000e+00 0.000000000000000000e+00 7.438777828000000092e+00 0.000000000000000000e+00 0.000000000000000000e+00 0.000000000000000000e+00 7.438777828000000092e+00
7.691674105999999789e+00 0.000000000000000000e+00 0.000000000000000000e+00 1.294200379999999873e-01 7.508394936000000186e+00 0.000000000000000000e+00 1.124760880000000018e-01 9.126730399999999355e-02 7.526674137999999736e+00
7.628360811000000297e+00 0.000000000000000000e+00 0.000000000000000000e+00 1.283547290000000007e-01 7.446590287000000252e+00 0.000000000000000000e+00 1.115502520000000025e-01 9.051604600000000278e-02 7.464719024999999952e+00
7.526880453000000415e+00 0.000000000000000000e+00 0.000000000000000000e+00 -1.920634710000000134e-01 7.644869357000000143e+00 0.000000000000000000e+00 1.667153580000000079e-01 -1.749130369999999934e-01 7.481275437999999944e+00
7.424009145000000309e+00 0.000000000000000000e+00 0.000000000000000000e+00 -1.894385030000000081e-01 7.540385471999999645e+00 0.000000000000000000e+00 1.644368280000000071e-01 -1.725224680000000121e-01 7.379027423000000141e+00
7.652430115999999671e+00 0.000000000000000000e+00 0.000000000000000000e+00 1.287597189999999947e-01 7.470086063000000109e+00 0.000000000000000000e+00 1.119022199999999967e-01 9.080164500000000027e-02 7.488272001000000344e+00
7.702879145999999899e+00 0.000000000000000000e+00 0.000000000000000000e+00 1.197570419999999941e-01 7.293091176999999981e+00 0.000000000000000000e+00 1.549345699999999937e-01 -1.690228169999999919e-01 7.507981350999999748e+00
7.463043252000000294e+00 0.000000000000000000e+00 0.000000000000000000e+00 0.000000000000000000e+00 7.463043252000000294e+00 0.000000000000000000e+00 0.000000000000000000e+00 0.000000000000000000e+00 7.463043252000000294e+00
7.548514260000000142e+00 0.000000000000000000e+00 0.000000000000000000e+00 1.270112320000000017e-01 7.368646338999999656e+00 0.000000000000000000e+00 1.103826479999999999e-01 8.956860799999999401e-02 7.386585322000000176e+00
7.422242113000000252e+00 0.000000000000000000e+00 0.000000000000000000e+00 -1.893934130000000104e-01 7.538590741000000151e+00 0.000000000000000000e+00 1.643976890000000135e-01 -1.724814040000000048e-01 7.377271097000000388e+00
7.643266296000000182e+00 0.000000000000000000e+00 0.000000000000000000e+00 1.286055289999999962e-01 7.461140600000000234e+00 0.000000000000000000e+00 1.117682160000000036e-01 9.069291000000000158e-02 7.479304760999999857e+00
7.467840310999999787e+00 0.000000000000000000e+00 0.000000000000000000e+00 1.247979909999999970e-01 7.378732656999999584e+00 0.000000000000000000e+00 1.701524600000000054e-01 7.555605799999999539e-02 7.513008387000000177e+00
7.673699247000000057e+00 0.000000000000000000e+00 0.000000000000000000e+00 1.291175930000000027e-01 7.490848386999999775e+00 0.000000000000000000e+00 1.122132400000000058e-01 9.105401899999999993e-02 7.509084870999999772e+00
7.662927895000000156e+00 0.000000000000000000e+00 0.000000000000000000e+00 1.289363540000000030e-01 7.480333696999999837e+00 0.000000000000000000e+00 1.120557300000000062e-01 9.092620899999999395e-02 7.498544583000000152e+00
7.789443256000000204e+00 0.000000000000000000e+00 0.000000000000000000e+00 1.211028589999999933e-01 7.375050134000000313e+00 0.000000000000000000e+00 1.566757069999999974e-01 -1.709222770000000113e-01 7.592355219999999960e+00
7.378036380000000172e+00 0.000000000000000000e+00 0.000000000000000000e+00 -1.882654149999999915e-01 7.493692053000000186e+00 0.000000000000000000e+00 1.634185619999999894e-01 -1.714541320000000091e-01 7.333333203999999661e+00
7.377291105000000293e+00 0.000000000000000000e+00 0.000000000000000000e+00 0.000000000000000000e+00 7.377291105000000293e+00 0.000000000000000000e+00 0.000000000000000000e+00 0.000000000000000000e+00 7.377291105000000293e+00
7.492328301999999773e+00 0.000000000000000000e+00 0.000000000000000000e+00 0.000000000000000000e+00 7.492328301999999773e+00 0.000000000000000000e+00 0.000000000000000000e+00 0.000000000000000000e+00 7.492328301999999773e+00
7.420474981999999997e+00 0.000000000000000000e+00 0.000000000000000000e+00 -1.893483210000000139e-01 7.536795908000000210e+00 0.000000000000000000e+00 1.643585489999999927e-01 -1.724403389999999980e-01 7.375514672999999632e+00
7.640091625000000164e+00 0.000000000000000000e+00 0.000000000000000000e+00 1.285521119999999962e-01 7.458041576000000283e+00 0.000000000000000000e+00 1.117217929999999998e-01 9.065523999999999805e-02 7.476198192000000020e+00
7.499812729000000289e+00 0.000000000000000000e+00 0.000000000000000000e+00 1.253322950000000102e-01 7.410323574000000413e+00 0.000000000000000000e+00 1.708809410000000084e-01 7.587953999999999533e-02 7.545174184999999589e+00
7.416422160999999846e+00 0.000000000000000000e+00 0.000000000000000000e+00 0.000000000000000000e+00 7.416422160999999846e+00 0.000000000000000000e+00 0.000000000000000000e+00 0.000000000000000000e+00 7.416422160999999846e+00
7.494517668000000299e+00 0.000000000000000000e+00 0.000000000000000000e+00 0.000000000000000000e+00 7.494517668000000299e+00 0.000000000000000000e+00 0.000000000000000000e+00 0.000000000000000000e+00 7.494517668000000299e+00
7.467551629999999996e+00 0.000000000000000000e+00 0.000000000000000000e+00 1.247931669999999965e-01 7.378447420999999729e+00 0.000000000000000000e+00 1.701458819999999983e-01 7.555313800000000579e-02 7.512717959999999806e+00
7.575267135999999901e+00 0.000000000000000000e+00 0.000000000000000000e+00 1.274613749999999879e-01 7.394761742000000027e+00 0.000000000000000000e+00 1.107738580000000028e-01 8.988604999999999512e-02 7.412764303000000332e+00
7.502200811999999885e+00 0.000000000000000000e+00 0.000000000000000000e+00 -1.914337200000000017e-01 7.619802844999999714e+00 0.000000000000000000e+00 1.661687209999999915e-01 -1.743395209999999973e-01 7.456745329000000311e+00
7.494130293000000442e+00 0.000000000000000000e+00 0.000000000000000000e+00 1.252373340000000057e-01 7.404708942000000071e+00 0.000000000000000000e+00 1.707514689999999891e-01 7.582204800000000300e-02 7.539457379999999986e+00
7.665813787000000268e+00 0.000000000000000000e+00 0.000000000000000000e+00 1.191807849999999974e-01 7.257997669999999957e+00 0.000000000000000000e+00 1.541890429999999979e-01 -1.682094990000000123e-01 7.471853817000000397e+00
7.519107062999999869e+00 0.000000000000000000e+00 0.000000000000000000e+00 1.256547299999999923e-01 7.429387685000000019e+00 0.000000000000000000e+00 1.713205570000000122e-01 7.607475099999999602e-02 7.564585218000000388e+00
7.551675922000000263e+00 0.000000000000000000e+00 0.000000000000000000e+00 1.270644300000000060e-01 7.371732664999999685e+00 0.000000000000000000e+00 1.104288820000000060e-01 8.960612399999999533e-02 7.389679162000000190e+00
7.457308581999999575e+00 0.000000000000000000e+00 0.000000000000000000e+00 0.000000000000000000e+00 7.457308581999999575e+00 0.000000000000000000e+00 0.000000000000000000e+00 0.000000000000000000e+00 7.457308581999999575e+00
7.582325720000000047e+00 0.000000000000000000e+00 0.000000000000000000e+00 1.275801430000000070e-01 7.401652131999999717e+00 0.000000000000000000e+00 1.108770760000000050e-01 8.996980599999999939e-02 7.419671467999999770e+00
7.479142753999999726e+00 0.000000000000000000e+00 0.000000000000000000e+00 -1.908453469999999985e-01 7.596383336999999791e+00 0.000000000000000000e+00 1.656579999999999997e-01 -1.738036870000000123e-01 7.433826979000000001e+00
7.519953110000000329e+00 0.000000000000000000e+00 0.000000000000000000e+00 1.256688689999999886e-01 7.430223637000000103e+00 0.000000000000000000e+00 1.713398339999999964e-01 7.608331100000000069e-02 7.565436382999999765e+00
7.550642392000000314e+00 0.000000000000000000e+00 0.000000000000000000e+00 1.173902099999999948e-01 7.148953314999999975e+00 0.000000000000000000e+00 1.518725019999999926e-01 -1.656823149999999967e-01 7.359596481999999718e+00
7.573958171000000128e+00 0.000000000000000000e+00 0.000000000000000000e+00 0.000000000000000000e+00 7.573958171000000128e+00 0.000000000000000000e+00 0.000000000000000000e+00 0.000000000000000000e+00 7.573958171000000128e+00
7.683563631000000171e+00 0.000000000000000000e+00 0.000000000000000000e+00 1.194567430000000041e-01 7.274803234000000174e+00 0.000000000000000000e+00 1.545460600000000129e-01 -1.685989800000000094e-01 7.489154554999999824e+00
7.648301111000000319e+00 0.000000000000000000e+00 0.000000000000000000e+00 1.286902440000000092e-01 7.466055444000000207e+00 0.000000000000000000e+00 1.118418409999999974e-01 9.075265200000000310e-02 7.484231569000000306e+00
7.647196558000000088e+00 0.000000000000000000e+00 0.000000000000000000e+00 1.286716589999999938e-01 7.464977209999999808e+00 0.000000000000000000e+00 1.118256890000000059e-01 9.073954500000000478e-02 7.483150711000000399e+00
7.653627742000000289e+00 0.000000000000000000e+00 0.000000000000000000e+00 1.287798699999999907e-01 7.471255151000000261e+00 0.000000000000000000e+00 1.119197329999999935e-01 9.081585600000000036e-02 7.489443934999999719e+00
7.580846428000000081e+00 0.000000000000000000e+00 0.000000000000000000e+00 1.275552520000000079e-01 7.400208089000000378e+00 0.000000000000000000e+00 1.108554449999999969e-01 8.995225299999999591e-02 7.418223908999999949e+00
7.392083112999999983e+00 0.000000000000000000e+00 0.000000000000000000e+00 0.000000000000000000e+00 7.392083112999999983e+00 0.000000000000000000e+00 0.000000000000000000e+00 0.000000000000000000e+00 7.392083112999999983e+00
7.539386807999999718e+00 0.000000000000000000e+00 0.000000000000000000e+00 0.000000000000000000e+00 7.539386807999999718e+00 0.000000000000000000e+00 0.000000000000000000e+00 0.000000000000000000e+00 7.539386807999999718e+00
7.496905890999999933e+00 0.000000000000000000e+00 0.000000000000000000e+00 0.000000000000000000e+00 7.496905890999999933e+00 0.000000000000000000e+00 0.000000000000000000e+00 0.000000000000000000e+00 7.496905890999999933e+00
7.593443457000000230e+00 0.000000000000000000e+00 0.000000000000000000e+00 1.180556400000000034e-01 7.189477391999999689e+00 0.000000000000000000e+00 1.527333959999999935e-01 -1.666214910000000105e-01 7.401314595999999746e+00
7.762381385000000300e+00 0.000000000000000000e+00 0.000000000000000000e+00 1.206821260000000007e-01 7.349427935999999661e+00 0.000000000000000000e+00 1.561313890000000093e-01 -1.703284630000000133e-01 7.565978066999999641e+00
7.494536667000000207e+00 0.000000000000000000e+00 0.000000000000000000e+00 -1.912381539999999935e-01 7.612018560000000100e+00 0.000000000000000000e+00 1.659989649999999983e-01 -1.741614180000000123e-01 7.449127621999999782e+00
7.693967566000000424e+00 0.000000000000000000e+00 0.000000000000000000e+00 1.196184930000000063e-01 7.284653686999999600e+00 0.000000000000000000e+00 1.547553239999999997e-01 -1.688272720000000005e-01 7.499295251000000384e+00
7.441379300999999558e+00 0.000000000000000000e+00 0.000000000000000000e+00 -1.898817369999999949e-01 7.558027917000000429e+00 0.000000000000000000e+00 1.648215650000000032e-01 -1.729261229999999872e-01 7.396292332999999886e+00