5.349779999999999980e+00 2.422369999999999912e+00 3.873229999999999951e+00 5.428079999999999572e+00 5.325800000000000090e+00 3.521630000000000038e+00 7.417049999999999699e+00 1.952129999999999921e+00 1.970990000000000020e+00 5.791900000000000048e+00 5.647669999999999746e+00 7.481639999999999624e+00 2.041479999999999961e+00 3.673010000000000108e+00 1.806480000000000086e+00 1.669019999999999948e+00 5.630469999999999864e+00 5.945999999999999897e-02 3.598770000000000024e+00 5.460490000000000066e+00 1.589269999999999960e+00 1.799800000000000066e+00 7.442409999999999748e+00 5.553160000000000096e+00 2.690000000000000117e-03 3.945409999999999862e+00 7.513939999999999841e+00 5.786810000000000009e+00 3.708750000000000213e+00 5.806460000000000399e+00 1.912490000000000023e+00 7.455219999999999736e+00 1.936299999999999910e+00 5.941889999999999894e+00 1.965100000000000069e+00 7.237190000000000012e+00 5.534880000000000244e+00 1.278499999999999914e-01 1.983300000000000063e+00 1.947719999999999896e+00 5.704570000000000363e+00 3.691370000000000040e+00 4.085340000000000416e+00 7.353489999999999860e+00 3.860809999999999853e+00 1.976040000000000019e+00 1.705650000000000110e+00 3.924339999999999939e+00 7.364029999999999632e+00 2.823000000000000162e-02 4.345899999999999763e-01 3.417120000000000157e+00 3.635940000000000172e+00 3.925930000000000142e+00 5.772120000000000140e+00 3.657109999999999861e+00 1.554489999999999927e+00 1.737710000000000088e+00 1.810089999999999977e+00 7.480470000000000397e+00 3.490500000000000269e-01 5.525249999999999773e+00 2.193560000000000176e+00 3.786439999999999806e+00 1.779179999999999984e+00 5.619480000000000253e+00 3.538219999999999921e+00 5.725459999999999994e+00 5.827600000000000335e+00 1.748999999999999860e-02 7.520360000000000156e+00 3.556599999999999984e+00 3.916560000000000041e+00 3.717350000000000154e+00 7.181729999999999947e+00 7.426730000000000054e+00 6.030050000000000132e+00 5.640240000000000364e+00 5.548840000000000217e+00 7.407569999999999766e+00 5.511969999999999814e+00 3.740660000000000096e+00 1.777819999999999956e+00 1.828470000000000040e+00 2.541999999999999815e-01 3.823370000000000157e+00 3.943690000000000140e+00 3.743660000000000210e+00 4.200599999999999890e-01 7.511610000000000120e+00 1.951869999999999994e+00 3.703530000000000211e+00 5.869799999999999685e+00 2.956999999999999906e-02 1.846640000000000059e+00 5.563790000000000013e+00
5.550019999999999953e+00 1.900649999999999951e+00 3.766439999999999788e+00 3.976589999999999847e+00 5.437879999999999825e+00 6.433900000000000396e+00 7.456290000000000084e+00 3.533929999999999794e+00 7.365910000000000402e+00 3.731809999999999850e+00 3.868529999999999802e+00 3.787430000000000074e+00 7.224459999999999660e+00 7.020999999999999464e-02 6.894800000000000040e+00 3.754830000000000112e+00 1.826920000000000099e+00 1.876700000000000035e+00 2.026009999999999867e+00 3.883500000000000174e+00 5.685699999999999754e+00 1.702890000000000015e+00 -4.449999999999999789e-02 5.508219999999999672e+00 1.964299999999999935e+00 1.583900000000000086e+00 7.311989999999999768e+00 4.004159999999999719e+00 5.199180000000000135e+00 1.687070000000000070e+00 5.624279999999999724e+00 5.429680000000000284e+00 3.820469999999999811e+00 3.776969999999999938e+00 3.459169999999999856e+00 1.487199999999999911e-01 4.165800000000000058e-01 3.525560000000000027e+00 3.912459999999999827e+00 1.818850000000000078e+00 5.725579999999999892e+00 3.616049999999999986e+00 1.733819999999999917e+00 1.834199999999999997e-01 2.051159999999999872e+00 4.002000000000000002e-02 5.404460000000000264e+00 5.554630000000000400e+00 7.273439999999999905e+00 6.342000000000000415e-02 3.494169999999999998e+00 5.629419999999999646e+00 3.762659999999999894e+00 1.850829999999999975e+00 5.582760000000000389e+00 -6.496999999999999997e-02 5.144479999999999720e+00 1.602970000000000006e+00 4.006850000000000023e+00 1.783830000000000027e+00 7.432620000000000005e+00 1.968190000000000106e+00 5.431720000000000326e+00 3.721270000000000078e+00 7.021889999999999965e+00 3.403119999999999923e+00 3.986000000000000210e+00 1.675200000000000022e-01 2.005000000000000115e-01 5.580659999999999954e+00 2.048579999999999846e+00 1.703000000000000000e-02 5.632240000000000357e+00 7.552749999999999631e+00 1.858400000000000052e+00 6.066629999999999967e+00 5.412340000000000373e+00 7.426759999999999806e+00 3.795529999999999848e+00 1.620109999999999939e+00 5.427870000000000417e+00 2.443000000000000033e-02 1.903929999999999900e+00 1.997109999999999941e+00 5.404510000000000147e+00 3.889159999999999950e+00 5.562269999999999825e+00 1.400689999999999991e+00 5.868369999999999642e+00 1.629299999999999915e-01 2.093999999999999861e+00 1.915000000000000036e+00 3.802309999999999857e+00 7.274339999999999584e+00 5.626319999999999766e+00 2.184000000000000163e+00
2.337019999999999875e+00 2.047959999999999781e+00 3.863290000000000113e+00 5.581369999999999720e+00 5.444160000000000110e+00 3.653700000000000170e+00 4.000619999999999621e+00 5.435030000000000250e+00 5.571310000000000429e+00 4.056860000000000355e+00 3.587930000000000064e+00 3.736219999999999875e+00 3.740409999999999791e+00 2.061389999999999834e+00 5.830490000000000173e+00 7.558620000000000339e+00 7.036690000000000111e+00 3.939709999999999823e+00 3.271000000000000019e-01 1.781300000000000106e+00 5.450890000000000235e+00 3.911360000000000170e+00 5.217100000000000293e+00 2.074939999999999785e+00 3.688899999999999846e+00 3.764759999999999884e+00 7.408529999999999838e+00 1.919259999999999966e+00 5.555469999999999686e+00 3.738999999999999962e-02 3.921349999999999891e+00 2.138720000000000176e+00 1.652079999999999993e+00 5.977870000000000239e+00 3.686799999999999855e+00 1.609180000000000055e+00 5.791249999999999787e+00 5.376140000000000363e+00 7.431519999999999904e+00 5.632640000000000313e+00 1.856020000000000003e+00 3.869260000000000144e+00 5.904700000000000060e+00 2.118729999999999780e+00 7.376599999999999824e+00 2.285309999999999953e+00 7.359539999999999971e+00 5.610310000000000130e+00 5.805539999999999701e+00 4.488000000000000322e-02 1.876489999999999991e+00 7.198789999999999800e+00 3.781750000000000167e+00 3.620080000000000187e+00 7.302740000000000009e+00 2.083610000000000184e+00 1.881620000000000070e+00 2.225530000000000008e+00 5.660709999999999908e+00 3.577910000000000146e+00 1.801649999999999974e+00 3.711660000000000181e+00 2.018740000000000201e+00 5.534220000000000361e+00 7.360520000000000174e+00 5.590080000000000382e+00 3.968189999999999884e+00 1.312800000000000078e-01 3.827939999999999898e+00 7.578759999999999941e+00 7.223180000000000156e+00 7.215349999999999930e+00 7.507719999999999949e+00 5.454030000000000378e+00 1.823110000000000008e+00 2.045459999999999834e+00 2.967400000000000038e-01 2.380539999999999878e+00 5.679999999999999716e+00 3.556490000000000151e+00 5.585840000000000138e+00 1.732839999999999936e+00 1.923799999999999955e+00 7.443780000000000285e+00 2.125519999999999854e+00 3.832040000000000113e+00 5.579290000000000305e+00 3.656400000000000206e-01 3.956170000000000186e+00 7.332440000000000069e+00 3.818770000000000220e+00 7.152639999999999887e+00 6.675000000000000377e-02 7.451559999999999739e+00 5.437429999999999986e+00 5.519239999999999924e+00
5.403360000000000163e+00 1.847339999999999982e+00 3.981040000000000134e+00 5.623009999999999842e+00 5.857120000000000104e+00 3.639660000000000117e+00 7.473019999999999996e+00 2.004220000000000113e+00 1.890700000000000047e+00 5.635390000000000121e+00 5.593609999999999971e+00 7.092530000000000001e+00 1.970080000000000053e+00 3.860479999999999912e+00 1.751309999999999922e+00 1.987409999999999899e+00 5.896040000000000170e+00 7.281279999999999752e+00 4.111559999999999881e+00 5.637170000000000236e+00 1.465950000000000086e+00 1.746930000000000094e+00 1.128099999999999936e-01 5.443920000000000314e+00 7.199160000000000004e+00 3.577179999999999804e+00 7.487370000000000303e+00 5.649519999999999875e+00 3.815879999999999939e+00 5.817599999999999660e+00 2.025049999999999795e+00 7.151000000000000412e-02 2.115650000000000031e+00 5.792550000000000310e+00 1.480229999999999935e+00 7.347739999999999938e+00 6.058469999999999800e+00 7.221659999999999968e+00 1.563430000000000097e+00 2.042969999999999953e+00 5.477219999999999978e+00 3.707660000000000178e+00 3.610710000000000086e+00 7.455989999999999895e+00 4.171570000000000000e+00 1.936989999999999990e+00 2.067849999999999966e+00 3.686319999999999819e+00 2.774499999999999744e-01 7.282680000000000042e+00 7.394230000000000302e+00 3.816580000000000084e+00 4.020629999999999704e+00 3.665470000000000006e+00 5.621489999999999654e+00 3.988640000000000185e+00 1.835050000000000070e+00 1.766839999999999966e+00 2.018539999999999779e+00 1.165100000000000025e-01 4.088300000000000267e-01 5.546739999999999782e+00 1.854440000000000088e+00 3.560229999999999784e+00 1.720809999999999951e+00 5.945759999999999934e+00 3.587330000000000130e+00 5.232359999999999900e+00 5.826780000000000292e+00 1.854099999999999915e-01 3.033999999999999891e-02 3.599289999999999878e+00 3.669789999999999885e+00 3.705630000000000202e+00 5.106999999999999734e-02 7.463809999999999611e+00 5.570129999999999804e+00 5.373540000000000205e+00 5.473139999999999894e+00 8.850000000000000228e-03 5.803049999999999820e+00 3.824339999999999851e+00 1.905669999999999975e+00 1.970599999999999907e+00 6.853349999999999831e+00 3.810779999999999834e+00 4.047839999999999883e+00 3.451239999999999863e+00 2.276400000000000090e-01 2.979600000000000026e-01 1.628600000000000048e+00 3.843580000000000219e+00 5.653539999999999566e+00 4.290000000000000410e-03 1.478420000000000067e+00 5.471219999999999750e+00
5.594979999999999620e+00 1.910679999999999934e+00 4.036579999999999835e+00 4.034379999999999633e+00 5.537329999999999863e+00 5.747399999999999842e+00 7.418379999999999974e+00 3.337130000000000152e+00 7.124430000000000263e+00 3.829369999999999941e+00 3.700750000000000206e+00 3.775720000000000187e+00 -4.125000000000000194e-02 7.498599999999999710e+00 1.324700000000000044e-01 3.670710000000000139e+00 1.808030000000000026e+00 1.862190000000000012e+00 1.954159999999999897e+00 3.632309999999999928e+00 5.459660000000000402e+00 1.904879999999999907e+00 7.212379999999999569e+00 5.729309999999999903e+00 2.184660000000000046e+00 2.116200000000000081e+00 2.242999999999999855e-02 3.392959999999999976e+00 5.605129999999999946e+00 2.066899999999999959e+00 5.520660000000000345e+00 5.658430000000000071e+00 3.706199999999999939e+00 3.945969999999999978e+00 3.508960000000000079e+00 7.350019999999999776e+00 7.141829999999999679e+00 3.933349999999999902e+00 3.570320000000000160e+00 1.807279999999999998e+00 5.518699999999999939e+00 3.814869999999999983e+00 1.807260000000000089e+00 1.574000000000000121e-01 1.845890000000000031e+00 3.298999999999999849e-02 5.747749999999999915e+00 5.455770000000000231e+00 7.464800000000000324e+00 2.787999999999999923e-01 3.858460000000000001e+00 5.504380000000000273e+00 3.870810000000000084e+00 1.731759999999999966e+00 5.589730000000000310e+00 -4.322999999999999760e-02 5.466859999999999609e+00 1.816170000000000062e+00 3.767180000000000195e+00 1.916989999999999972e+00 3.224799999999999889e-01 1.559299999999999908e+00 5.467200000000000060e+00 3.770189999999999930e+00 1.760500000000000120e-01 3.442839999999999900e+00 3.402299999999999880e+00 7.294270000000000032e+00 6.551999999999999491e-02 5.564759999999999707e+00 1.384919999999999929e+00 7.246240000000000236e+00 5.454970000000000319e+00 -1.916999999999999954e-02 1.563669999999999893e+00 5.818859999999999921e+00 5.662720000000000198e+00 1.638799999999999979e-01 3.669319999999999915e+00 1.585329999999999906e+00 5.459670000000000023e+00 7.174820000000000420e+00 1.829919999999999991e+00 1.586629999999999985e+00 5.619670000000000165e+00 3.523870000000000058e+00 5.500849999999999795e+00 1.478650000000000020e+00 5.334310000000000329e+00 6.704999999999999849e-02 1.836629999999999985e+00 1.843250000000000055e+00 3.664660000000000029e+00 -1.167999999999999941e-02 5.873920000000000030e+00 2.091140000000000221e+00
5.690629999999999633e+00 1.830470000000000041e+00 3.575349999999999806e+00 3.725830000000000197e+00 5.869299999999999962e+00 5.133169999999999789e+00 3.898000000000000076e-02 3.796969999999999956e+00 1.656400000000000095e-01 3.772710000000000008e+00 3.924780000000000157e+00 3.627460000000000129e+00 7.065140000000000420e+00 7.496279999999999610e+00 2.644599999999999729e-01 3.680489999999999817e+00 1.843609999999999971e+00 1.912290000000000045e+00 2.163850000000000051e+00 3.685639999999999805e+00 5.799319999999999808e+00 1.769309999999999938e+00 -5.152999999999999942e-02 5.555920000000000414e+00 1.928500000000000103e+00 1.560859999999999914e+00 7.351329999999999920e+00 3.234480000000000022e+00 5.549789999999999779e+00 1.968809999999999949e+00 5.401189999999999714e+00 5.552629999999999733e+00 3.349070000000000213e+00 3.741999999999999993e+00 3.480620000000000047e+00 2.592200000000000060e-01 1.832100000000000117e-01 3.763809999999999878e+00 3.737859999999999960e+00 1.734769999999999923e+00 5.612800000000000011e+00 3.786029999999999784e+00 1.957019999999999982e+00 1.710800000000000098e-01 1.877119999999999900e+00 7.315809999999999924e+00 5.467559999999999754e+00 5.478430000000000355e+00 2.595999999999999974e-01 1.273600000000000010e-01 3.831440000000000179e+00 5.535639999999999894e+00 3.483690000000000175e+00 1.810030000000000028e+00 5.876820000000000377e+00 -7.237999999999999989e-02 5.229519999999999946e+00 1.775050000000000017e+00 3.500280000000000058e+00 1.966450000000000031e+00 7.425769999999999982e+00 2.145000000000000018e+00 5.695490000000000386e+00 4.009590000000000209e+00 -6.832000000000000572e-02 3.831560000000000077e+00 3.782119999999999926e+00 7.363220000000000098e+00 7.238730000000000331e+00 5.730760000000000076e+00 1.812680000000000069e+00 9.026000000000000689e-02 5.422469999999999679e+00 1.197499999999999953e-01 1.683179999999999898e+00 5.419019999999999726e+00 5.342679999999999652e+00 3.142999999999999960e-02 3.966209999999999791e+00 1.414309999999999956e+00 5.409159999999999968e+00 7.415269999999999584e+00 2.036140000000000061e+00 1.982150000000000079e+00 5.487300000000000288e+00 3.725179999999999936e+00 5.500460000000000349e+00 1.551160000000000094e+00 5.639179999999999637e+00 7.358109999999999928e+00 2.044470000000000010e+00 1.526839999999999975e+00 3.742840000000000167e+00 7.219669999999999810e+00 5.609659999999999869e+00 1.766270000000000007e+00
7.452519999999999811e+00 4.080350000000000144e+00 3.897060000000000191e+00 3.701900000000000190e+00 3.836219999999999963e+00 2.302999999999999839e-02 2.140200000000000102e+00 1.969789999999999930e+00 3.867350000000000065e+00 1.769499999999999962e-01 1.958550000000000013e+00 5.740029999999999966e+00 5.762380000000000280e+00 3.535940000000000083e+00 5.848760000000000403e+00 5.771980000000000111e+00 3.577000000000000318e-02 1.763519999999999976e+00 2.047480000000000189e+00 3.486800000000000122e+00 5.793210000000000193e+00 4.187310000000000088e+00 3.889029999999999987e+00 3.559550000000000214e+00 3.836640000000000050e+00 7.263899999999999579e+00 4.993000000000000216e-02 4.349899999999999878e-01 7.351049999999999862e+00 7.283649999999999736e+00 5.778509999999999813e+00 3.717750000000000110e+00 1.808410000000000073e+00 7.632419999999999760e+00 1.493700000000000028e-01 3.715230000000000032e+00 1.665729999999999933e+00 1.926499999999999879e-01 1.971880000000000077e+00 7.772639999999999993e+00 5.625359999999999694e+00 5.599510000000000431e+00 3.842429999999999790e+00 1.753910000000000080e+00 5.716310000000000002e+00 4.022949999999999804e+00 2.022699999999999942e+00 1.182600000000000096e+00 2.042349999999999888e+00 3.775150000000000006e+00 1.714579999999999993e+00 1.917429999999999968e+00 1.627310000000000034e+00 2.360000000000000119e-03 6.127100000000000435e+00 5.784980000000000011e+00 3.357470000000000176e+00 5.758670000000000400e+00 1.670409999999999950e+00 8.959000000000000297e-02 4.030940000000000190e+00 7.334800000000000431e+00 3.739440000000000097e+00 1.958150000000000057e+00 5.526550000000000296e+00 3.853299999999999947e+00 1.994420000000000082e+00 1.151900000000000007e-01 5.424999999999999822e+00 3.971480000000000121e+00 5.650559999999999583e+00 1.945489999999999942e+00 5.720519999999999605e+00 5.633619999999999628e+00 7.754999999999999394e-02 5.428689999999999571e+00 1.811760000000000037e+00 3.732600000000000140e+00 2.660799999999999832e-01 3.764619999999999855e+00 7.432430000000000092e+00 1.057300000000000045e-01 2.363449999999999829e+00 2.122700000000000031e+00 2.050139999999999851e+00 5.515839999999999854e+00 2.108800000000000119e-01 5.985009999999999941e+00 7.232949999999999768e+00 5.439809999999999590e+00 1.979700000000000071e-01 5.676949999999999719e+00 1.481519999999999948e+00 3.797709999999999919e+00 5.657960000000000100e+00 5.679789999999999672e+00
5.664760000000000240e+00 1.493060000000000054e+00 3.574600000000000222e+00 3.451769999999999783e+00 5.826939999999999564e+00 5.592939999999999579e+00 1.558799999999999908e-01 3.832819999999999894e+00 2.311600000000000044e-01 3.791059999999999874e+00 3.418070000000000164e+00 3.568420000000000147e+00 7.409259999999999735e+00 6.244999999999999857e-02 7.102059999999999818e+00 3.799160000000000093e+00 1.552219999999999933e+00 1.960429999999999895e+00 2.058920000000000083e+00 3.639079999999999870e+00 5.667729999999999713e+00 1.681550000000000100e+00 7.472409999999999997e+00 5.547640000000000349e+00 1.895110000000000072e+00 1.958059999999999912e+00 2.669599999999999751e-01 4.220939999999999692e+00 5.645539999999999559e+00 2.113220000000000098e+00 5.318019999999999747e+00 5.575470000000000148e+00 4.286909999999999776e+00 3.954610000000000181e+00 4.088630000000000209e+00 1.915800000000000003e-01 7.404860000000000220e+00 3.726360000000000117e+00 3.821120000000000072e+00 2.082440000000000069e+00 5.707160000000000011e+00 3.665140000000000065e+00 1.431410000000000071e+00 -2.245000000000000120e-02 1.573649999999999993e+00 1.782299999999999995e-01 5.471009999999999707e+00 5.504430000000000156e+00 7.331599999999999895e+00 7.416870000000000296e+00 4.010830000000000339e+00 5.655450000000000088e+00 3.627949999999999786e+00 1.880679999999999907e+00 5.635119999999999685e+00 -3.307000000000000217e-02 5.543510000000000382e+00 1.895459999999999923e+00 4.047240000000000393e+00 2.001809999999999867e+00 3.346999999999999975e-01 2.008869999999999933e+00 5.771460000000000257e+00 3.558510000000000062e+00 4.279999999999999950e-03 3.632969999999999811e+00 3.932329999999999881e+00 -1.320300000000000085e-01 7.298140000000000072e+00 5.741780000000000328e+00 2.222109999999999808e+00 4.207000000000000323e-02 5.584050000000000402e+00 7.374200000000000088e+00 1.572980000000000045e+00 6.104309999999999903e+00 5.230610000000000426e+00 6.995359999999999800e+00 3.586629999999999985e+00 1.681440000000000046e+00 5.070520000000000138e+00 7.273799999999999599e+00 2.032989999999999853e+00 1.934620000000000006e+00 5.160219999999999807e+00 3.346620000000000150e+00 5.440299999999999692e+00 1.891999999999999904e+00 5.723620000000000374e+00 1.002600000000000019e-01 1.711750000000000105e+00 1.847050000000000081e+00 3.610230000000000050e+00 7.156600000000000072e+00 5.780680000000000263e+00 2.242039999999999811e+00
7.653870000000000395e+00 3.593469999999999942e+00 3.677519999999999900e+00 3.852819999999999911e+00 3.780330000000000190e+00 3.746700000000000030e-01 1.828300000000000036e+00 1.467919999999999892e+00 3.734719999999999818e+00 7.462310000000000443e+00 1.821139999999999981e+00 5.174009999999999998e+00 6.134669999999999845e+00 3.786399999999999988e+00 5.780369999999999564e+00 5.630729999999999791e+00 5.367999999999999855e-02 1.876100000000000101e+00 2.091959999999999820e+00 3.772489999999999899e+00 5.564790000000000347e+00 3.885780000000000012e+00 3.739339999999999886e+00 3.621179999999999843e+00 3.797410000000000174e+00 4.611899999999999888e-01 7.079749999999999766e+00 1.810299999999999965e-01 2.540700000000000180e-01 7.373420000000000307e+00 5.661019999999999719e+00 3.931859999999999911e+00 1.841329999999999911e+00 7.659919999999999618e+00 7.408100000000000129e+00 3.791110000000000202e+00 1.976320000000000077e+00 8.286999999999999922e-02 1.788200000000000012e+00 2.930099999999999927e-01 5.799870000000000303e+00 5.859729999999999883e+00 3.987260000000000026e+00 2.210830000000000073e+00 5.458960000000000257e+00 3.825489999999999835e+00 1.742070000000000007e+00 2.051540000000000141e+00 1.981440000000000090e+00 3.273969999999999825e+00 2.238049999999999873e+00 1.978799999999999892e+00 2.063590000000000035e+00 7.057610000000000383e+00 5.909469999999999779e+00 5.410549999999999748e+00 3.765989999999999949e+00 5.570149999999999935e+00 2.017110000000000181e+00 2.045299999999999896e-01 3.896640000000000104e+00 5.378999999999999754e-02 3.825930000000000053e+00 2.156579999999999941e+00 5.377060000000000173e+00 3.483379999999999921e+00 2.085690000000000044e+00 7.397979999999999556e+00 5.701570000000000249e+00 3.879379999999999828e+00 5.785510000000000375e+00 1.727759999999999962e+00 6.154639999999999667e+00 5.879209999999999603e+00 7.140859999999999985e+00 5.744480000000000253e+00 2.016039999999999832e+00 3.478330000000000144e+00 2.993700000000000250e-01 3.907280000000000086e+00 2.961500000000000243e-01 7.462170000000000414e+00 1.543469999999999898e+00 1.752780000000000005e+00 2.000160000000000160e+00 5.499179999999999957e+00 2.521300000000000208e-01 5.747169999999999668e+00 2.096500000000000030e-01 5.441749999999999865e+00 1.395000000000000129e-01 5.497139999999999915e+00 2.046839999999999993e+00 4.101469999999999949e+00 5.415610000000000035e+00 5.427019999999999733e+00
1.781600000000000072e+00 1.657450000000000090e+00 3.551029999999999909e+00 6.067669999999999675e+00 5.653789999999999871e+00 3.900599999999999845e+00 3.840980000000000061e+00 5.811670000000000336e+00 5.782600000000000406e+00 3.701439999999999841e+00 4.134479999999999933e+00 3.996830000000000105e+00 4.327329999999999899e+00 1.811350000000000016e+00 5.339730000000000310e+00 7.551470000000000127e+00 3.510300000000000087e-01 3.716050000000000075e+00 7.360680000000000334e+00 2.184820000000000206e+00 5.700809999999999711e+00 4.001319999999999766e+00 5.836310000000000109e+00 1.680020000000000069e+00 4.018440000000000012e+00 3.736209999999999809e+00 8.661000000000000643e-02 1.905049999999999910e+00 5.326719999999999899e+00 7.510069999999999801e+00 3.844450000000000145e+00 1.783709999999999907e+00 1.894090000000000051e+00 5.479709999999999859e+00 3.914499999999999869e+00 2.297849999999999948e+00 5.932620000000000005e+00 5.580809999999999604e+00 7.345950000000000202e+00 5.613920000000000243e+00 1.875159999999999938e+00 3.552140000000000075e+00 5.591099999999999959e+00 1.683140000000000081e+00 2.309999999999999901e-02 1.935670000000000002e+00 3.296200000000000241e-01 5.578109999999999680e+00 5.981020000000000003e+00 7.240680000000000227e+00 2.016439999999999788e+00 4.298699999999999743e-01 3.658599999999999852e+00 3.660260000000000069e+00 2.840699999999999892e-01 1.818510000000000071e+00 1.794219999999999926e+00 1.863590000000000080e+00 5.668140000000000178e+00 3.987629999999999786e+00 2.207549999999999901e+00 3.691469999999999807e+00 1.861499999999999932e+00 6.038429999999999964e+00 7.301070000000000171e+00 5.647140000000000271e+00 3.626240000000000130e+00 7.152250000000000441e+00 3.976760000000000073e+00 6.667699999999999738e-01 3.798799999999999955e-01 7.527809999999999668e+00 2.507099999999999884e-01 5.622969999999999580e+00 2.133939999999999948e+00 2.088499999999999801e+00 7.073559999999999626e+00 1.577970000000000095e+00 5.873099999999999987e+00 3.907729999999999926e+00 5.762839999999999741e+00 2.522569999999999979e+00 2.152600000000000069e+00 7.512380000000000280e+00 1.897790000000000088e+00 3.539109999999999978e+00 6.030459999999999710e+00 7.131850000000000023e+00 3.361559999999999881e+00 3.138099999999999778e-01 3.794080000000000119e+00 3.390900000000000025e-01 7.267559999999999576e+00 3.496199999999999863e-01 5.871529999999999916e+00 5.869889999999999830e+00
7.371069999999999567e+00 3.750799999999999912e+00 3.461009999999999920e+00 3.627839999999999954e+00 3.156989999999999963e+00 2.439099999999999879e-01 2.270989999999999842e+00 2.331519999999999815e+00 3.770389999999999908e+00 3.470099999999999851e-01 2.096530000000000005e+00 5.308010000000000339e+00 5.799680000000000391e+00 3.780260000000000176e+00 5.500029999999999752e+00 5.888609999999999900e+00 2.337500000000000133e-01 1.644460000000000033e+00 2.129620000000000068e+00 3.738840000000000163e+00 5.916540000000000354e+00 4.233660000000000423e+00 3.985770000000000035e+00 3.881540000000000212e+00 3.701249999999999929e+00 1.891700000000000048e-01 1.177300000000000013e-01 7.568190000000000417e+00 3.623700000000000254e-01 7.064739999999999576e+00 5.643729999999999691e+00 3.680860000000000021e+00 1.936129999999999907e+00 7.671400000000000219e+00 7.340060000000000251e+00 3.771809999999999885e+00 2.295920000000000183e+00 7.397770000000000401e+00 2.579530000000000101e+00 7.530129999999999768e+00 5.385519999999999641e+00 5.500630000000000130e+00 4.088709999999999845e+00 2.053129999999999900e+00 5.128219999999999779e+00 3.929580000000000073e+00 1.801129999999999898e+00 2.233140000000000125e+00 1.662619999999999987e+00 3.693630000000000191e+00 1.925729999999999942e+00 1.942209999999999992e+00 1.769390000000000018e+00 3.606500000000000261e-01 5.839249999999999829e+00 5.716230000000000366e+00 3.272609999999999797e+00 5.610179999999999723e+00 1.713829999999999965e+00 1.238000000000000038e-02 4.188880000000000159e+00 7.205919999999999881e+00 3.775349999999999984e+00 2.013959999999999972e+00 5.323839999999999684e+00 3.446709999999999940e+00 1.992860000000000076e+00 2.737700000000000133e-01 5.334109999999999907e+00 3.609729999999999883e+00 5.413319999999999688e+00 1.518040000000000056e+00 5.466179999999999595e+00 5.558620000000000339e+00 7.393340000000000245e+00 5.998569999999999958e+00 1.850200000000000067e+00 3.777919999999999945e+00 7.319490000000000052e+00 3.584799999999999986e+00 3.644399999999999862e-01 1.336600000000000010e-01 1.317479999999999984e+00 1.936909999999999910e+00 2.141290000000000138e+00 5.910339999999999705e+00 7.295829999999999593e+00 5.982700000000000351e+00 7.314739999999999576e+00 5.446270000000000167e+00 2.889300000000000201e-01 5.827989999999999782e+00 1.362649999999999917e+00 3.845479999999999787e+00 5.656869999999999621e+00 5.644239999999999924e+00
2.216899999999999982e-01 3.388090000000000046e+00 3.258270000000000000e+00 3.576719999999999899e+00 4.195229999999999571e+00 7.281340000000000146e+00 1.765889999999999960e+00 1.684050000000000047e+00 4.082709999999999617e+00 1.423699999999999966e-01 1.921319999999999917e+00 5.477240000000000109e+00 5.861399999999999721e+00 4.066099999999999604e+00 5.494640000000000413e+00 5.891060000000000407e+00 7.217380000000000351e+00 1.965000000000000080e+00 1.995449999999999946e+00 3.819469999999999921e+00 5.256439999999999557e+00 3.916900000000000048e+00 3.431340000000000057e+00 3.759220000000000006e+00 3.878309999999999924e+00 6.927999999999999436e-02 2.592200000000000060e-01 7.568380000000000329e+00 7.293739999999999668e+00 1.782900000000000040e-01 5.777560000000000251e+00 3.853629999999999889e+00 1.972879999999999967e+00 7.529040000000000177e+00 1.521500000000000075e-01 3.608299999999999841e+00 1.986969999999999903e+00 2.028500000000000025e-01 2.082320000000000171e+00 4.986700000000000021e-01 5.699639999999999596e+00 5.826240000000000308e+00 3.900879999999999903e+00 1.863620000000000054e+00 5.621509999999999785e+00 3.805299999999999905e+00 1.933659999999999934e+00 1.668860000000000010e+00 2.073399999999999910e+00 3.493829999999999991e+00 2.035890000000000200e+00 2.092480000000000118e+00 1.799369999999999914e+00 7.107560000000000322e+00 6.017800000000000260e+00 5.561530000000000307e+00 3.786560000000000148e+00 5.481429999999999580e+00 2.286739999999999995e+00 7.339660000000000295e+00 3.769400000000000084e+00 3.194199999999999817e-01 3.467089999999999783e+00 1.960990000000000011e+00 5.458079999999999821e+00 3.694780000000000175e+00 2.258539999999999992e+00 7.347940000000000360e+00 5.575569999999999915e+00 3.837889999999999802e+00 5.329410000000000203e+00 1.825490000000000057e+00 5.752670000000000172e+00 5.716219999999999857e+00 7.307199999999999918e+00 5.604860000000000397e+00 1.750369999999999981e+00 3.722480000000000011e+00 7.591960000000000264e+00 3.520570000000000199e+00 2.203600000000000003e-01 7.409139999999999837e+00 1.670539999999999914e+00 1.580070000000000086e+00 1.866819999999999924e+00 5.515740000000000087e+00 1.147600000000000009e-01 6.032540000000000013e+00 7.162219999999999587e+00 5.324709999999999610e+00 2.469899999999999873e-01 5.787029999999999674e+00 2.031849999999999934e+00 4.021740000000000315e+00 5.657949999999999591e+00 5.060529999999999973e+00