-1.132519648600000011e+02
-1.123484756499999975e+02
-1.138081318699999969e+02
-1.117838840200000021e+02
-1.136381872200000061e+02
-1.129543675400000069e+02
-1.131554907700000001e+02
-1.121439267699999931e+02
-1.134526831900000019e+02
-1.112541398999999984e+02
-1.119078200999999950e+02
-1.126279557600000061e+02
-1.134901321800000034e+02
-1.123535057400000028e+02
-1.125916012699999982e+02
-1.120461103199999968e+02
-1.109241738700000042e+02
-1.134750059299999947e+02
-1.113571529799999951e+02
-1.134674010399999986e+02
-1.135817229200000043e+02
-1.117561042500000070e+02
-1.131758186899999998e+02
-1.113836255500000050e+02
-1.127853546200000068e+02
-1.140231312899999949e+02
-1.112269332900000052e+02
-1.117432106100000055e+02
-1.116274285599999985e+02
-1.133660153900000012e+02
-1.124536597799999953e+02
-1.133716933900000043e+02
-1.120328586199999990e+02
-1.132354910600000011e+02
-1.139416873600000031e+02
-1.124662862200000006e+02
-1.148811767800000041e+02
-1.118389657000000028e+02
-1.118961855700000001e+02
-1.135639762800000057e+02
-1.128573318199999989e+02
-1.120630701099999982e+02
-1.131958869999999990e+02
-1.133787789299999957e+02
-1.121354451800000049e+02
-1.107116530800000049e+02
-1.146052643400000051e+02
-1.121305015899999944e+02
-1.146219147099999986e+02
-1.133016220300000043e+02
-1.126877888199999944e+02
-1.119284688000000045e+02
-1.124820877599999989e+02
-1.132926663300000030e+02
-1.120906438800000018e+02
-1.126779089300000010e+02
-1.111218393999999989e+02
-1.126026073099999962e+02
-1.121556141899999943e+02
-1.118254730299999977e+02
-1.133191037400000027e+02
-1.127371234499999986e+02
-1.118010390799999954e+02
-1.117283385599999974e+02
-1.138052614000000062e+02
-1.121535393999999997e+02
-1.147606495200000012e+02
-1.135415672799999953e+02
-1.121544104900000036e+02
-1.147107961499999931e+02
-1.122817684399999933e+02
-1.129427277099999998e+02
-1.130707938700000028e+02
-1.123851740100000001e+02
-1.130712704900000034e+02
-1.138565769300000028e+02
-1.127657505100000037e+02
-1.120450187099999937e+02
-1.113118817200000024e+02
-1.117372056199999975e+02
-1.109512232999999952e+02
-1.131464899099999997e+02
-1.134152260000000041e+02
-1.113634777500000013e+02
-1.132408164999999940e+02
-1.122902490999999969e+02
-1.132873704299999957e+02
-1.114633430300000043e+02
-1.137164374700000025e+02
-1.132600311599999969e+02
-1.126669505200000003e+02
-1.136523360300000007e+02
-1.145148441399999939e+02
-1.136378426299999944e+02
-1.114060624100000041e+02
-1.130704750900000022e+02
-1.115016897600000050e+02
-1.110330127400000038e+02
-1.110231536600000055e+02
-1.132439897099999939e+02
-1.146544695599999955e+02
-1.129592721199999943e+02
-1.132176931500000023e+02
-1.126982430300000004e+02
-1.123249907000000007e+02
-1.145954648799999944e+02
-1.137577052500000008e+02
-1.136568713900000063e+02
-1.130339973100000037e+02
-1.113549138500000026e+02
-1.129586841299999946e+02
-1.140256370500000003e+02
-1.127170939899999951e+02
-1.142203401999999954e+02
-1.138167583200000053e+02
-1.120445629299999979e+02
-1.124198980700000021e+02
-1.134927536000000003e+02
-1.156464521900000051e+02
-1.129277982199999997e+02
-1.130661984399999938e+02
-1.129657687400000015e+02
-1.134437055199999946e+02
-1.119668186300000059e+02
-1.147590008100000034e+02
-1.147813818999999995e+02
-1.114358431800000062e+02
-1.133810058899999973e+02
-1.130120107799999971e+02
-1.115477156900000040e+02
-1.124907408199999992e+02
-1.133995086099999980e+02
-1.125161617499999949e+02
-1.136954449899999986e+02
-1.122858804100000043e+02
-1.123161640600000055e+02
-1.134891367999999972e+02
-1.113318323299999975e+02
-1.126377317000000033e+02
-1.117244753800000012e+02
-1.141614775799999961e+02
-1.124902288899999974e+02
-1.130408828599999964e+02
-1.143899173399999967e+02
-1.137151324600000066e+02
-1.126780005800000026e+02
-1.123582255999999973e+02
-1.141840291500000006e+02
-1.131375602500000070e+02
-1.115997721600000006e+02
-1.125555796999999956e+02
-1.128822438600000027e+02
-1.147692533999999966e+02
-1.110129690100000062e+02
-1.137935856299999955e+02
-1.129363040899999930e+02
-1.140819906899999978e+02
-1.126796209999999974e+02
-1.134718077299999948e+02
-1.135101071400000023e+02
-1.132483538500000009e+02
-1.116931334100000015e+02
-1.126819599500000066e+02
-1.123993602999999979e+02
-1.122832767600000068e+02
-1.120596255899999960e+02
-1.136023695399999980e+02
-1.125274271899999974e+02
-1.133504754899999938e+02
-1.137198242900000054e+02
-1.115791023200000041e+02
-1.137253429299999965e+02
-1.130213668300000052e+02
-1.138967899600000067e+02
-1.145561306299999984e+02
-1.140854801400000014e+02
-1.139620649000000014e+02
-1.129091266100000013e+02
-1.133308336000000054e+02
-1.135633539800000023e+02
-1.129006124499999970e+02
-1.135212824099999978e+02
-1.137156451299999986e+02
-1.126870656600000018e+02
-1.127562266399999942e+02
-1.126268245100000058e+02
-1.139428860999999955e+02
-1.132782774599999982e+02
-1.125939634399999960e+02
-1.121742098299999952e+02
-1.129865842800000024e+02
-1.116116504799999944e+02
-1.129345468199999942e+02
-1.131177901800000001e+02
-1.117708929000000069e+02
-1.137863000499999941e+02
-1.124863220799999937e+02
-1.132679605999999950e+02
-1.129016512700000021e+02
-1.131867269600000014e+02
-1.146453445899999934e+02
-1.124273455900000016e+02
-1.114748322500000057e+02
-1.117737350600000070e+02
-1.133454389000000049e+02
-1.143162453700000043e+02
-1.122067236999999977e+02
-1.134082465900000045e+02
-1.128748045699999949e+02
-1.136914786300000060e+02
-1.131040329500000041e+02
-1.130287350499999945e+02
-1.133042952699999972e+02
-1.117364505099999974e+02
-1.138390306900000013e+02
-1.137624459400000063e+02
-1.127660721200000040e+02
-1.112877752800000053e+02
-1.120012035499999996e+02
-1.122953854900000010e+02
-1.129137075499999980e+02
-1.137435282499999971e+02
-1.133638805800000000e+02
-1.137472887200000002e+02
-1.124255225699999983e+02
-1.132504186400000066e+02
-1.153182091500000013e+02
-1.115287862999999930e+02
-1.133820702600000061e+02
-1.135254066399999999e+02
-1.137804376100000070e+02
-1.132383695700000033e+02
-1.132819052899999974e+02
-1.127363770999999986e+02
-1.125292643300000037e+02
-1.131995329100000021e+02
-1.119852821199999937e+02
-1.131903498899999931e+02
-1.130887630800000068e+02
-1.131795830500000051e+02
-1.136240652799999964e+02
-1.116165968100000043e+02
-1.135505387399999933e+02
-1.121468948299999937e+02
-1.127212231500000001e+02
-1.142899855400000035e+02
-1.143195768899999933e+02
-1.115614331799999945e+02
-1.134070343700000052e+02
-1.128929080500000026e+02
-1.122085087600000008e+02
-1.128913263099999966e+02
-1.131257820999999950e+02
-1.126249557999999951e+02
-1.125663877100000008e+02
-1.112634050999999999e+02
-1.118054351800000035e+02
-1.137786738899999932e+02
-1.141751239000000027e+02
-1.125058949699999999e+02
-1.121390190200000063e+02
-1.129422186900000042e+02
-1.139949653799999965e+02
-1.144704361799999930e+02
-1.130837691600000028e+02
-1.135132560100000063e+02
-1.158508678700000019e+02
-1.122144349900000009e+02
-1.127195107699999994e+02
-1.130174302000000068e+02
-1.123370960900000028e+02
-1.141126881299999951e+02
-1.134297184400000020e+02
-1.118006166800000045e+02
-1.118839864199999994e+02
-1.133188989199999952e+02
-1.134477914699999985e+02
-1.127714206800000056e+02
-1.138931797700000033e+02
-1.129813515400000057e+02
-1.143606071100000037e+02
-1.135389955899999990e+02
-1.128725383700000009e+02
-1.113115492799999942e+02
-1.133509628500000019e+02
-1.153504242500000032e+02
-1.152498173200000053e+02
-1.123273908999999975e+02
-1.134919973100000021e+02
-1.119111606099999960e+02
-1.117078784800000051e+02
-1.136281195300000064e+02
-1.132424872699999980e+02
-1.129384198300000008e+02
-1.129415407399999935e+02
-1.128442868799999985e+02
-1.141789131400000059e+02
-1.127268826100000041e+02
-1.117809704299999964e+02
-1.144000503000000037e+02
