1.394765999999999950e+00 -1.106786999999999965e+00 -1.025076000000000098e+00 4.353239999999999887e-01 -1.409650000000000070e-01 2.371350000000000124e-01 5.500439999999999774e-01 1.218950000000000033e-01 1.963570000000000038e-01 -7.610970000000000235e-01 4.173330000000000095e-01 3.017369999999999775e-01 -6.260130000000000416e-01 -4.996189999999999798e-01 -3.472700000000000092e-02 4.159320000000000239e-01 5.962800000000000322e-01 -3.528709999999999902e-01 9.074410000000000531e-01 5.910330000000000306e-01 2.873390000000000111e-01 3.820149999999999935e-01 4.399970000000000270e-01 4.764590000000000214e-01 6.833150000000000057e-01 -6.847079999999999833e-01 -9.525100000000000233e-02 3.212630000000000208e-01 1.495255999999999919e+00 -1.328893000000000102e+00 4.641790000000000083e-01 5.954209999999999781e-01 -3.342300000000000271e-01 -8.680510000000000170e-01 -1.235567000000000082e+00 1.435075000000000101e+00 4.580200000000000243e-02 -3.188630000000000075e-01 -2.146099999999999952e-01 1.350200999999999985e+00 -3.058599999999999861e-02 1.471217999999999915e+00 -1.901432999999999929e+00 3.364719999999999933e-01 -1.034632999999999914e+00 -3.805890000000000106e-01 8.765199999999999381e-02 -7.722649999999999793e-01 5.860049999999999981e-01 -3.572279999999999900e-01 -8.224860000000000504e-01 -8.802599999999999314e-02 1.079631000000000007e+00 -3.685700000000000087e-01 -9.503979999999999650e-01 4.257830000000000226e-01 7.878270000000000550e-01 -1.345480000000000009e-01 7.564899999999999403e-02 3.239690000000000070e-01 -1.988893999999999940e+00 -2.955570000000000142e-01 -1.712042000000000064e+00 -1.257399999999999907e-01 1.665010000000000101e-01 -1.740170000000000050e-01 5.709400000000000031e-01 5.680600000000000233e-02 -2.320010000000000128e-01 -3.557529999999999859e-01 2.175709999999999866e-01 6.104619999999999491e-01 -3.257939999999999725e-01 -1.712470000000000103e-01 1.524807999999999941e+00 3.531580000000000275e-01 -1.195621000000000045e+00 -1.013199999999999934e-01 6.739169999999999883e-01 6.004410000000000025e-01 1.228620999999999963e+00 -1.135739999999999944e-01 9.634460000000000246e-01 8.690700000000000092e-01 -3.767469999999999986e-01 -3.631220000000000003e-01 -1.086699999999999992e-02 3.162760000000000016e-01 -1.774682000000000093e+00 -1.658189999999999942e-01 -8.175299999999999789e-01 1.611440000000000095e-01 -4.187389999999999723e-01 3.636070000000000135e-01 -2.537559999999999816e-01 -5.516590000000000105e-01
3.959999999999999978e-03 5.724559999999999649e-01 -7.118010000000000170e-01 -1.583781000000000105e+00 9.907299999999999995e-01 -5.514219999999999677e-01 1.138833999999999902e+00 -1.139909999999999951e-01 1.680589999999999862e-01 -4.756569999999999965e-01 -2.702300000000000257e-01 -2.401830000000000076e-01 5.179510000000000502e-01 -6.604510000000000103e-01 1.093000999999999889e+00 -1.111940000000000012e-01 7.603000000000000036e-02 8.295989999999999753e-01 4.011250000000000093e-01 -3.431839999999999891e-01 4.938469999999999804e-01 6.008670000000000400e-01 -3.699060000000000126e-01 -5.227920000000000345e-01 -1.166360000000000036e-01 3.125439999999999885e-01 4.329000000000000070e-01 -1.720498000000000083e+00 2.298761999999999972e+00 7.227100000000000191e-02 -2.026610000000000078e-01 4.888299999999999867e-01 -1.152060000000000028e-01 -1.248134000000000077e+00 2.132560000000000011e-01 -8.725829999999999975e-01 -1.081325000000000092e+00 1.677769000000000066e+00 -1.243686000000000069e+00 -4.988079999999999736e-01 -4.100550000000000028e-01 3.500869999999999815e-01 6.563759999999999595e-01 -6.027749999999999497e-01 -5.665710000000000468e-01 1.720820000000000127e-01 5.169700000000000406e-01 -5.065340000000000398e-01 1.718077999999999994e+00 -2.286749999999999894e-01 2.021120999999999945e+00 1.448688999999999893e+00 -1.531392000000000087e+00 6.173039999999999639e-01 -3.896259999999999724e-01 -5.323449999999999571e-01 1.080873999999999890e+00 6.723280000000000367e-01 -7.697330000000000005e-01 -2.099499999999999977e-01 6.623000000000000415e-03 -8.747730000000000228e-01 7.245770000000000266e-01 7.417100000000000082e-02 1.066572999999999993e+00 5.857400000000000106e-02 -4.932289999999999730e-01 -5.390639999999999876e-01 -5.984779999999999545e-01 2.751759999999999762e-01 -7.591820000000000235e-01 -1.845940000000000081e-01 -1.100888000000000089e+00 -4.877700000000000091e-02 -1.415669999999999984e+00 -1.385099999999999942e-01 8.462669999999999915e-01 1.000175999999999954e+00 -4.736300000000000232e-02 2.307160000000000044e-01 7.992179999999999840e-01 -1.464799999999999991e-01 7.102020000000000000e-01 -7.584480000000000111e-01 1.044361000000000095e+00 -1.759082999999999952e+00 1.846029999999999893e-01 1.499659999999999882e-01 3.412819999999999743e-01 -2.766629999999999923e-01 -1.059090000000000031e-01 -5.062130000000000241e-01 -2.731239999999999779e-01 5.801129999999999898e-01 -2.255800000000000166e-02 -8.785060000000000091e-01
-1.131280999999999981e+00 -1.640459999999999974e-01 -4.771100000000000341e-02 6.422069999999999723e-01 1.009714000000000000e+00 4.433480000000000198e-01 -3.499340000000000228e-01 3.410460000000000158e-01 8.641699999999999382e-02 -4.507450000000000068e-01 3.952049999999999730e-01 1.731810000000000016e-01 5.450430000000000552e-01 -1.383912999999999949e+00 -1.410540000000000127e-01 5.131399999999999850e-02 1.365596999999999950e+00 -1.019892999999999939e+00 -5.215610000000000523e-01 3.288409999999999944e-01 -1.739360000000000073e-01 -8.633899999999999908e-02 7.534359999999999946e-01 -2.150272000000000183e+00 5.328040000000000553e-01 6.982009999999999605e-01 7.105599999999999694e-01 2.333069999999999866e-01 3.489840000000000164e-01 1.278880000000000017e-01 -2.044219999999999926e-01 -9.877930000000000321e-01 6.843000000000000194e-01 -3.129302000000000028e+00 1.471926000000000068e+00 5.041999999999999815e-01 -5.257009999999999739e-01 9.639929999999999888e-01 -2.545950000000000157e-01 7.325420000000000265e-01 -6.902080000000000437e-01 -5.107300000000000173e-01 -4.593200000000000061e-02 -1.418449000000000071e+00 4.383599999999999997e-02 -3.809219999999999828e-01 -7.107800000000000229e-02 -7.784399999999999653e-02 -5.704270000000000174e-01 9.968000000000000471e-02 -1.403790000000000038e-01 1.584972000000000047e+00 -4.933359999999999967e-01 1.056149000000000004e+00 2.160422000000000065e+00 -2.908358999999999916e+00 3.475920000000000121e-01 -7.946280000000000010e-01 -8.113479999999999581e-01 1.287141000000000091e+00 4.780039999999999845e-01 -3.252050000000000218e-01 -3.220919999999999894e-01 1.250607999999999942e+00 1.332069999999999921e-01 8.994720000000000493e-01 -6.147829999999999684e-01 -2.920400000000000218e-01 -8.981770000000000032e-01 5.502699999999999952e-02 5.047380000000000200e-01 3.672070000000000056e-01 5.330669999999999575e-01 1.182322000000000095e+00 1.242479999999999973e-01 -5.869389999999999885e-01 6.497600000000000597e-02 -1.810530999999999890e+00 4.783919999999999839e-01 8.764870000000000161e-01 1.285999999999999990e-02 6.775229999999999864e-01 -4.416919999999999735e-01 4.786549999999999971e-01 -9.120850000000000346e-01 2.872390000000000221e-01 -5.643939999999999513e-01 2.123399999999999940e-02 -9.041050000000000475e-01 5.708699999999999886e-02 5.894200000000000134e-02 4.957770000000000232e-01 4.820949999999999958e-01 2.695930000000000271e-01 -4.297940000000000094e-01 2.253719999999999890e-01
-6.640300000000000369e-02 -2.720540000000000180e-01 -1.870699999999999863e-01 -2.968000000000000083e-01 3.171120000000000050e-01 1.329130000000000034e-01 -2.333659999999999901e-01 -1.386870000000000047e-01 4.178859999999999797e-01 5.109439999999999538e-01 8.289809999999999679e-01 1.826707000000000081e+00 2.651029999999999776e-01 -5.642599999999999838e-01 3.530710000000000237e-01 6.863800000000000456e-02 -1.550866000000000078e+00 1.000547000000000075e+00 -1.510232999999999937e+00 9.226830000000000309e-01 8.321499999999999453e-01 6.569380000000000219e-01 -1.085981000000000085e+00 7.354950000000000099e-01 1.276140999999999970e+00 2.578289999999999749e-01 3.256009999999999738e-01 -1.995584000000000024e+00 -1.888902000000000081e+00 -7.733399999999999996e-02 -1.861399999999999999e-01 -2.065029999999999921e-01 -1.127890000000000004e-01 -1.109549999999999981e-01 1.932177000000000033e+00 1.651329000000000047e+00 -6.318500000000000227e-01 3.468700000000000117e-01 6.177960000000000118e-01 -7.359219999999999651e-01 6.913059999999999761e-01 2.645270000000000121e-01 9.515590000000000437e-01 -1.221679999999999988e-01 -1.265630999999999950e+00 -6.153499999999999942e-02 1.198729999999999934e-01 2.728229999999999822e-01 -1.167157999999999918e+00 1.158738000000000046e+00 9.731299999999999673e-02 7.309849999999999959e-01 -1.063903000000000043e+00 -1.025469999999999993e-01 6.997999999999999776e-01 -1.107550999999999952e+00 1.831599999999999895e-01 -3.868750000000000244e-01 -2.257010000000000127e-01 -1.544770000000000032e-01 -1.107054999999999900e+00 3.889949999999999797e-01 -4.226499999999999702e-02 4.149700000000000055e-01 9.811569999999999458e-01 -8.338069999999999649e-01 8.181749999999999856e-01 1.200795999999999975e+00 -1.683238999999999930e+00 -9.054590000000000138e-01 -3.796640000000000015e-01 -3.214540000000000175e-01 4.453540000000000276e-01 -8.614929999999999533e-01 1.809939999999999882e-01 3.164330000000000198e-01 1.356103000000000058e+00 7.180619999999999781e-01 -1.800769999999999871e-01 -1.088438999999999934e+00 -1.984002999999999961e+00 2.221430000000000071e-01 4.059429999999999983e-01 1.811580000000000135e-01 1.963748000000000049e+00 -1.082195000000000018e+00 -2.606329999999999814e+00 1.185465999999999909e+00 -3.670240000000000169e-01 -8.490720000000000489e-01 5.393200000000000077e-02 -9.417229999999999768e-01 3.574900000000000300e-02 -1.004915999999999920e+00 2.038552000000000142e+00 3.927370000000000028e-01
3.158630000000000049e-01 -1.017800999999999956e+00 -2.258106000000000169e+00 -6.587819999999999787e-01 -6.715649999999999675e-01 -4.390229999999999966e-01 1.670210000000000028e-01 2.945099999999999940e-01 5.742939999999999712e-01 -3.363410000000000011e-01 4.947700000000000015e-02 -3.114129999999999954e-01 -1.132620000000000016e-01 2.373349999999999904e-01 -7.989789999999999948e-01 6.446330000000000116e-01 1.148670000000000080e+00 -3.998639999999999972e-01 -1.265449999999999908e-01 4.598800000000000110e-02 2.177739999999999954e-01 1.253360000000000030e-01 3.456569999999999920e-01 -4.483440000000000203e-01 -2.120143000000000111e+00 -1.181005000000000082e+00 -6.458200000000000052e-02 8.655610000000000248e-01 2.196359999999999979e-01 -8.434190000000000298e-01 -5.392550000000000399e-01 5.533900000000000485e-01 -1.641160000000000119e-01 5.622700000000000475e-01 1.180199999999999916e+00 1.169010000000000049e-01 1.060985000000000067e+00 -9.442570000000000130e-01 2.697240000000000193e-01 8.882099999999999718e-02 2.040109999999999979e-01 1.183170000000000055e-01 1.941890000000000005e-01 -2.721160000000000245e-01 1.871410000000000018e-01 -7.772090000000000387e-01 -5.750889999999999613e-01 2.068109999999999948e-01 -4.102100000000000191e-01 -2.708337999999999912e+00 -2.902635000000000076e+00 -6.482999999999999874e-02 -4.983520000000000172e-01 3.217269999999999852e-01 2.748610000000000220e-01 -9.611990000000000256e-01 -2.609909999999999730e-01 -3.307669999999999777e-01 -5.122590000000000199e-01 2.008479999999999988e-01 -1.038900000000000066e-02 1.852608999999999950e+00 2.980576999999999810e+00 1.253489999999999882e-01 -1.364492000000000038e+00 1.077682999999999947e+00 -7.171800000000000397e-02 3.860319999999999863e-01 2.976670000000000149e-01 5.061600000000000127e-02 1.623820000000000041e+00 1.404070000000000040e-01 4.487800000000000122e-01 -4.628990000000000049e-01 1.482985999999999915e+00 -6.134500000000000508e-01 -4.033220000000000138e-01 -8.632680000000000353e-01 -5.120700000000000252e-02 4.325829999999999953e-01 1.586359999999999992e-01 4.696870000000000211e-01 4.497490000000000099e-01 8.924520000000000231e-01 6.920800000000000562e-02 1.506925999999999988e+00 1.353776000000000090e+00 4.284819999999999740e-01 6.479249999999999732e-01 -2.369370000000000087e-01 4.593720000000000026e-01 5.787930000000000019e-01 -3.977800000000000225e-01 -1.269260000000000110e-01 -1.846129999999999993e-01 -2.082640000000000047e-01
-2.626299999999999746e-01 1.577830000000000066e-01 8.900550000000000406e-01 -8.551400000000000667e-02 -2.584966999999999793e+00 2.994653000000000009e+00 -1.924440000000000039e-01 -1.584869999999999890e-01 -3.965469999999999828e-01 -7.463790000000000147e-01 -1.618808000000000025e+00 4.036109999999999975e-01 7.082289999999999974e-01 1.923100000000000087e-01 -1.084494999999999987e+00 2.104769999999999974e-01 -3.794170000000000043e-01 3.149350000000000205e-01 -6.003900000000000209e-02 -6.415099999999999969e-02 -4.378520000000000190e-01 6.077690000000000037e-01 -6.038210000000000521e-01 8.622330000000000272e-01 1.255610000000000059e-01 5.321240000000000414e-01 1.745069999999999955e-01 6.561669999999999447e-01 6.692829999999999613e-01 -1.278682000000000096e+00 9.350840000000000263e-01 5.523890000000000189e-01 3.102530000000000010e-01 -6.427450000000000108e-01 6.356359999999999788e-01 -1.223041999999999963e+00 -8.089969999999999661e-01 -2.781109999999999971e-01 2.579170000000000074e-01 -4.536310000000000064e-01 2.871190000000000131e-01 -1.721000000000000090e-03 -3.722829999999999750e-01 -1.330143000000000075e+00 -7.018990000000000506e-01 -3.838199999999999945e-02 2.823740000000000139e-01 2.538969999999999838e-01 -1.130894999999999984e+00 -8.289929999999999799e-01 -1.372122999999999982e+00 1.863690000000000069e-01 1.294731999999999994e+00 5.071130000000000360e-01 4.216520000000000268e-01 -3.593629999999999880e-01 1.550459999999999949e+00 8.591659999999999853e-01 6.960340000000000416e-01 -3.115020000000000011e-01 5.174389999999999823e-01 -7.805849999999999733e-01 -8.930890000000000217e-01 -8.935020000000000184e-01 9.213000000000000078e-01 -4.156291000000000402e+00 -3.703060000000000240e-01 -3.287499999999999867e-01 2.614750000000000130e-01 -7.108269999999999866e-01 4.045670000000000099e-01 -9.060099999999999820e-01 -1.043049999999999949e-01 -1.129966000000000026e+00 1.191940000000000000e+00 -2.748320000000000207e-01 8.932620000000000005e-01 2.579199999999999826e-01 -4.330450000000000133e-01 2.393101000000000145e+00 1.740696999999999939e+00 5.337349999999999595e-01 -1.447786000000000017e+00 -4.571970000000000200e-01 -2.591439999999999855e-01 -3.531549999999999967e-01 -2.394620000000000082e-01 1.189275000000000082e+00 2.088480000000000059e-01 -6.501500000000000334e-02 4.294200000000000239e-01 2.086564000000000085e+00 6.366519999999999957e-01 4.595569999999999933e-01 3.907999999999999668e-02 9.166090000000000071e-01
8.331460000000000532e-01 -1.949935999999999892e+00 -1.884869999999999879e-01 9.484029999999999960e-01 9.685420000000000140e-01 -1.148730000000000029e+00 -1.739479999999999915e-01 2.515009999999999746e-01 -8.960270000000000179e-01 -6.143429999999999724e-01 -4.516379999999999839e-01 -7.232140000000000235e-01 -1.305300000000000037e-02 6.167599999999999749e-01 -5.180219999999999825e-01 -4.424000000000000155e-02 4.805679999999999952e-01 1.786649999999999905e-01 2.491180000000000061e-01 1.347604999999999942e+00 -8.039629999999999832e-01 -8.458440000000000403e-01 -6.497600000000000597e-02 1.032421999999999951e+00 1.190569999999999962e-01 2.160370000000000068e-01 -6.300300000000000344e-02 -7.106670000000000487e-01 1.109147000000000105e+00 -2.760150000000000103e-01 1.420919999999999961e-01 3.012369999999999770e-01 -4.423199999999999910e-01 4.047800000000000009e-02 3.252399999999999736e-01 2.078849999999999865e-01 7.699049999999999505e-01 -2.169969999999999954e-01 -2.909000000000000127e-02 2.604159999999999808e-01 -1.258039999999999992e-01 5.027390000000000470e-01 7.429829999999999490e-01 1.965359999999999885e-01 -7.988000000000000655e-02 -2.256400999999999879e+00 -1.091644999999999976e+00 3.529615999999999865e+00 -1.842699999999999894e-02 -6.342600000000000460e-01 1.472142999999999979e+00 -3.606610000000000094e-01 3.622020000000000239e-01 3.636699999999999933e-01 -1.236358999999999986e+00 1.096369999999999983e-01 5.914589999999999570e-01 2.789712000000000192e+00 -2.123700000000000032e-01 -2.109427999999999859e+00 -3.380810000000000204e-01 1.379200000000000044e-02 -4.100100000000000272e-02 3.491540000000000199e-01 -5.633699999999999819e-02 -5.167599999999999971e-01 -2.167370000000000130e-01 -4.809519999999999906e-01 2.794579999999999842e-01 -3.535030000000000117e-01 2.556000000000000112e-03 -2.419949999999999879e-01 1.575840000000000019e-01 -4.237150000000000083e-01 -5.473040000000000127e-01 8.424449999999999994e-01 1.044329999999999981e-01 -1.622109999999999941e-01 -5.942800000000000304e-01 8.045099999999999474e-02 6.907199999999999451e-02 1.183870000000000061e-01 -1.289149000000000100e+00 8.707199999999999662e-02 4.845450000000000035e-01 9.291979999999999684e-01 -1.530256000000000061e+00 -5.437920000000000531e-01 7.309050000000000269e-01 4.380580000000000029e-01 -9.264550000000000285e-01 -7.791869999999999630e-01 2.047664000000000151e+00 3.993659999999999988e-01 -3.693810000000000149e-01 -4.822159999999999780e-01
-3.349300000000000194e-02 3.916479999999999961e-01 4.794459999999999833e-01 2.866839999999999944e-01 -7.076339999999999852e-01 4.697919999999999874e-01 2.046759999999999968e-01 2.871319999999999983e-01 -2.139129999999999920e-01 -4.960040000000000004e-01 1.316877999999999993e+00 -8.557160000000000322e-01 6.597669999999999924e-01 -6.420970000000000288e-01 6.321729999999999849e-01 -1.225640000000000063e-01 6.429479999999999640e-01 -1.284645000000000037e+00 4.229840000000000266e-01 4.864550000000000263e-01 -4.386099999999999721e-02 2.593840000000000034e-01 5.019419999999999993e-01 5.642970000000000486e-01 1.730540000000000134e-01 2.738530000000000131e-01 -4.285539999999999905e-01 -1.182722000000000051e+00 -5.936599999999999655e-01 -1.061750000000000055e-01 1.171073000000000031e+00 -4.916639999999999899e-01 -9.482159999999999478e-01 -9.896690000000000209e-01 -3.482910000000000172e-01 -2.311219999999999941e-01 2.029200000000000101e-02 -1.632740000000000025e-01 -7.305599999999999594e-02 -1.159397000000000011e+00 -5.301249999999999574e-01 -1.569339999999999902e-01 3.373829999999999885e-01 6.322400000000000242e-02 7.056350000000000122e-01 1.321012000000000075e+00 7.511800000000000421e-02 -7.560489999999999711e-01 6.309299999999999631e-02 5.179460000000000175e-01 -6.039309999999999956e-01 -4.721060000000000256e-01 1.225025000000000031e+00 8.661159999999999970e-01 -4.575960000000000027e-01 4.747149999999999981e-01 2.394000000000000017e-01 5.079999999999999880e-04 -6.756900000000000128e-01 -3.639649999999999830e-01 -6.366199999999999637e-01 -2.153710000000000069e-01 -5.969839999999999591e-01 6.828619999999999690e-01 -1.416315999999999908e+00 -5.242259999999999698e-01 -1.909780000000000089e-01 4.735980000000000190e-01 7.633619999999999850e-01 -7.135550000000000503e-01 -9.094050000000000189e-01 -8.850719999999999699e-01 8.170199999999999685e-02 1.568918000000000035e+00 -1.388669999999999904e-01 -1.775239000000000011e+00 4.555600000000000205e-01 1.399658999999999986e+00 -5.477800000000000030e-02 -1.667250000000000121e-01 2.356040000000000134e+00 1.620503000000000027e+00 -1.177073999999999954e+00 -2.469079999999999886e-01 1.347477000000000036e+00 5.305360000000000076e-01 6.501449999999999729e-01 -3.924659999999999815e-01 -1.106240000000000001e-01 9.801200000000000190e-02 -4.421990000000000087e-01 -8.899999999999999491e-04 -4.368810000000000193e-01 4.669289999999999830e-01 -1.136656000000000111e+00 -3.290040000000000187e-01
1.807759999999999923e-01 6.660709999999999686e-01 -1.899689999999999990e-01 -7.600240000000000329e-01 -3.449699999999999989e-01 -1.175597999999999921e+00 4.910129999999999773e-01 6.753489999999999771e-01 5.639549999999999841e-01 8.520199999999999996e-01 4.291010000000000102e-01 1.956339999999999968e+00 -3.673109999999999986e-01 1.275739999999999930e-01 -1.105949999999999989e-01 -2.528499999999999845e-02 -8.986739999999999728e-01 -2.020679999999999976e-01 -4.191969999999999863e-01 1.046540999999999944e+00 -6.826769999999999783e-01 5.306769999999999543e-01 1.219309999999999977e-01 -1.027170000000000027e-01 7.752379999999999827e-01 -1.030983999999999901e+00 1.122408000000000072e+00 -2.624679999999999791e-01 -2.329610000000000014e-01 -2.252250000000000085e-01 9.102289999999999548e-01 -2.995599999999999999e-02 -7.064700000000000146e-02 8.255200000000000038e-02 -1.343051999999999913e+00 -8.524570000000000203e-01 -3.100359999999999783e-01 -1.927129999999999954e-01 -3.262260000000000160e-01 1.302740999999999927e+00 -9.626700000000000257e-01 -2.033821999999999797e+00 3.405070000000000041e-01 -2.109800000000000009e-01 1.306769999999999876e-01 -1.131479999999999986e-01 9.459299999999999653e-02 -7.428820000000000423e-01 -5.347969999999999668e-01 6.231889999999999930e-01 -1.494566999999999979e+00 -3.505119999999999902e-01 -3.937030000000000252e-01 1.289895999999999932e+00 -3.822899999999999909e-02 6.861089999999999689e-01 2.057090000000000030e-01 4.061980000000000035e-01 -3.804640000000000244e-01 -5.448739999999999695e-01 -1.737900000000000000e-01 -5.033560000000000256e-01 3.724399999999999933e-02 -4.622009999999999730e-01 9.951600000000000446e-01 7.238689999999999847e-01 1.084269999999999956e-01 -3.130249999999999977e-01 -7.920179999999999998e-01 7.380560000000000453e-01 1.806030000000000135e-01 3.821950000000000069e-01 -2.225153000000000159e+00 -2.472030000000000061e-01 2.042351000000000028e+00 -1.824439999999999951e-01 -1.613570000000000004e-01 5.621439999999999770e-01 -8.285500000000000087e-01 -1.220447000000000060e+00 -5.709480000000000111e-01 9.758620000000000072e-01 1.485362999999999989e+00 7.389829999999999455e-01 3.060979999999999812e-01 4.899279999999999746e-01 -5.737320000000000197e-01 -4.631210000000000049e-01 -3.052540000000000253e-01 3.552259999999999862e-01 -1.321410000000000085e-01 7.667199999999999571e-01 -1.588799999999999935e-01 -3.519869999999999943e-01 3.835370000000000168e-01 7.389059999999999517e-01
2.397002000000000077e+00 1.046817000000000109e+00 3.917729999999999824e-01 -3.175399999999999889e-01 -2.140100000000000058e-01 2.412849999999999995e-01 1.834210000000000007e-01 -1.039207999999999910e+00 1.049681000000000086e+00 3.635120000000000018e-01 -7.617460000000000342e-01 -9.394700000000000273e-02 -1.326456000000000079e+00 4.220130000000000270e-01 1.267341000000000051e+00 -7.978290000000000104e-01 -1.610516999999999976e+00 6.951850000000000529e-01 7.540769999999999973e-01 -1.387064999999999992e+00 -4.106679999999999775e-01 3.843389999999999862e-01 -7.409489999999999688e-01 7.666199999999999404e-02 2.130620000000000014e-01 4.055719999999999881e-01 -1.111459999999999948e-01 6.159430000000000183e-01 5.328829999999999956e-01 9.576259999999999772e-01 -8.760999999999999691e-03 -3.986129999999999951e-01 1.779719999999999913e-01 4.299009999999999776e-01 -7.275800000000000323e-02 -8.567770000000000108e-01 -1.577200000000000130e-02 7.682959999999999789e-01 1.440887000000000029e+00 1.197205000000000075e+00 -1.572399999999999839e-02 -6.076439999999999619e-01 -2.397330000000000017e-01 -6.169329999999999536e-01 7.582200000000000051e-02 -1.876909999999999967e-01 1.509540000000000048e-01 1.870999999999999885e-01 -3.999050000000000105e-01 7.191319999999999935e-01 -6.923439999999999594e-01 -7.495849999999999458e-01 8.153199999999999337e-02 3.557339999999999947e-01 -4.042520000000000002e-01 -4.018140000000000045e-01 2.652590000000000225e-01 -4.774909999999999988e-01 -1.779860000000000053e-01 -2.159780000000000033e-01 -2.390190000000000092e-01 3.842309999999999892e-01 3.143889999999999740e-01 -6.018099999999999561e-01 1.229373000000000049e+00 1.096909999999999968e-01 1.610338999999999965e+00 1.241635999999999962e+00 -1.917918999999999929e+00 -1.526448000000000027e+00 -2.427219999999999933e-01 -3.323249999999999815e-01 -2.219899999999999929e-01 -5.475139999999999452e-01 -7.687599999999999989e-01 9.059999999999999998e-02 1.127841000000000093e+00 1.137933000000000083e+00 -7.174669999999999659e-01 1.106960000000000027e-01 -9.360490000000000199e-01 -9.373050000000000548e-01 -1.038416000000000006e+00 1.628341000000000038e+00 -4.676609999999999934e-01 1.323696999999999901e+00 -2.651470999999999911e+00 7.056740000000000235e-01 1.922319000000000111e+00 -7.328729999999999967e-01 8.600119999999999987e-01 -1.632859000000000060e+00 4.988400000000000056e-01 -1.683729999999999949e-01 -5.681599999999999984e-01 -5.436220000000000496e-01
1.172693999999999903e+00 4.838970000000000216e-01 5.782270000000000465e-01 1.673332999999999959e+00 1.697578000000000031e+00 -4.072009999999999796e-01 -1.489127000000000089e+00 -7.378600000000000436e-02 1.206229999999999941e-01 -4.644639999999999880e-01 2.478760000000000130e-01 6.160910000000000553e-01 5.651610000000000245e-01 -2.743459999999999788e-01 1.234391999999999934e+00 -2.315288999999999930e+00 -2.418334000000000206e+00 8.315719999999999779e-01 -3.402870000000000061e-01 2.373220000000000052e-01 -4.719610000000000194e-01 -1.374292000000000069e+00 5.326929999999999721e-01 -1.359849000000000085e+00 2.724579999999999780e-01 -3.461580000000000212e-01 -3.066969999999999974e-01 9.884490000000000220e-01 -6.531749999999999501e-01 -9.565899999999999403e-02 -1.064060999999999924e+00 -2.689400000000000124e-01 -7.854579999999999895e-01 5.502460000000000129e-01 -9.115929999999999866e-01 4.972500000000000253e-01 -7.848669999999999813e-01 9.958669999999999467e-01 -1.584236999999999895e+00 9.056130000000000013e-01 2.932719999999999771e-01 3.460889999999999800e-01 -1.372230000000000116e-01 -1.231983000000000050e+00 1.990421999999999914e+00 4.866130000000000178e-01 -3.582799999999999874e-02 -5.156420000000000448e-01 3.937919999999999754e-01 -4.742370000000000196e-01 -1.485738999999999921e+00 -1.671267000000000058e+00 -1.009125999999999967e+00 -4.415660000000000140e-01 7.671810000000000018e-01 -3.574579999999999980e-01 1.337990000000000013e-01 -1.725039999999999907e-01 1.549050999999999956e+00 -1.241859999999999964e+00 8.977300000000000557e-02 5.525550000000000184e-01 4.108559999999999990e-01 -1.873450000000000115e-01 -1.325149999999999939e-01 1.930466999999999933e+00 3.463769999999999905e-01 -3.786510000000000153e-01 1.667909999999999948e-01 3.713110000000000022e-01 -1.498299999999999910e-01 1.455670000000000019e+00 1.452294999999999892e+00 -4.148099999999999704e-02 -1.045740000000000003e-01 -4.458550000000000013e-01 -3.397109999999999852e-01 -5.250329999999999719e-01 7.205439999999999623e-01 -1.434459999999999902e-01 -1.312821000000000016e+00 1.912523999999999891e+00 2.531900999999999957e+00 -2.616660000000000097e-01 -4.874629999999999797e-01 3.853999999999999787e-02 -9.572979999999999823e-01 -8.906180000000000208e-01 1.094490000000000046e-01 5.219559999999999755e-01 -9.153660000000000130e-01 -2.788799999999999960e-02 1.305760000000000032e+00 7.166500000000000647e-02 -1.516999999999999902e-03 -2.827049999999999841e-01
-1.271546000000000065e+00 6.616419999999999524e-01 1.529784000000000033e+00 1.928179000000000087e+00 -2.389470000000000205e+00 -1.038616999999999901e+00 2.158675000000000122e+00 7.576500000000000457e-01 -2.098743999999999943e+00 -2.097964999999999858e+00 2.822270000000000056e-01 1.709033000000000024e+00 2.080589999999999939e-01 -1.417143000000000042e+00 6.134519999999999973e-01 -1.273905999999999983e+00 3.299529999999999963e-01 -4.401880000000000237e-01 -1.122149999999999953e-01 -7.518280000000000518e-01 1.370605000000000073e+00 -5.948900000000000021e-02 7.715340000000000531e-01 -3.698759999999999826e-01 -2.887919999999999932e-01 -6.342700000000000005e-01 -7.451630000000000198e-01 2.395120000000000027e-01 -1.752259999999999929e-01 -1.548529000000000044e+00 -2.350520000000000109e-01 -3.560710000000000264e-01 -4.406760000000000121e-01 5.035220000000000251e-01 7.615299999999999847e-02 6.641010000000000524e-01 -8.821569999999999689e-01 -3.598649999999999904e-01 -1.363496999999999959e+00 -1.621563000000000088e+00 -4.887710000000000110e-01 -1.368932999999999955e+00 3.483410000000000117e-01 -1.551629999999999954e-01 -4.643369999999999997e-01 1.769550000000000012e-01 5.103940000000000143e-01 5.796010000000000328e-01 3.398590000000000222e-01 3.954360000000000097e-01 -1.100321000000000105e+00 -6.738629999999999898e-01 7.041460000000000496e-01 1.211335000000000051e+00 2.972569999999999935e-01 -7.181089999999999973e-01 -1.788154000000000021e+00 1.183780000000000054e+00 -8.423600000000000532e-02 -2.325160000000000005e-01 5.081170000000000408e-01 -1.028018000000000098e+00 1.107674999999999965e+00 2.106729999999999992e-01 9.722549999999999804e-01 -6.434239999999999959e-01 7.291000000000000258e-02 -9.051519999999999566e-01 2.711270000000000069e-01 3.940300000000000052e-02 1.039544999999999941e+00 1.063171000000000088e+00 2.471700000000000008e-01 -5.072529999999999539e-01 4.057120000000000171e-01 1.117690000000000072e+00 6.602090000000000458e-01 -5.231000000000000233e-02 2.682599999999999985e-01 1.032577000000000078e+00 -8.153820000000000512e-01 9.102100000000000468e-02 6.021969999999999823e-01 1.111647000000000052e+00 -4.193729999999999958e-01 1.376582999999999890e+00 1.198290999999999995e+00 -5.492820000000000480e-01 1.556024000000000074e+00 1.576011000000000051e+00 1.203810000000000019e-01 -1.657408999999999910e+00 -6.977290000000000436e-01 -5.745609999999999884e-01 -1.005400000000000044e-01 7.968490000000000295e-01